54
Time=0.00000000 pbc="T T T" Lattice="9.45012100 0.00000000 0.00000000 0.00000000 9.45012100 0.00000000 0.00000000 0.00000000 9.45012100" energy=-367.19296457 virial="-18.24657095 -0.01273081 -0.00916564 -0.01273081 -18.04257587 0.12331300 -0.00916564 0.12331300 -17.66918474" stress="-0.02162067 -0.00001508 -0.00001086 -0.00001508 -0.02137895 0.00014612 -0.00001086 0.00014612 -0.02093651" Properties=species:S:1:pos:R:3:forces:R:3:energy_atom:R:1
Mo 9.42896000 0.04434000 0.11151100 0.28994899 -0.10519484 -1.09687589 -6.79419765
Mo 9.30500000 0.03552300 3.19006000 1.22100280 -0.80363935 -0.14054154 -6.75817554
Mo 9.44247000 0.00707814 6.31534000 0.33289375 -0.17964851 -0.20204241 -6.71992734
Mo 9.38347000 3.18008000 0.02675330 0.75166072 0.03395263 -0.14067125 -6.85091102
Mo 9.42631000 3.14201000 3.15200000 0.13085106 -0.24022988 0.15237600 -6.80156261
Mo 0.00996988 3.16434000 6.41466000 -0.06693685 0.26699201 -0.97688682 -6.76639750
Mo 9.40970000 6.36860000 9.38755000 0.56137112 -0.75205480 0.39524594 -6.80051645
Mo 9.36696000 6.15363000 3.07956000 0.63248141 1.21212767 0.55931862 -6.74808156
Mo 9.41615000 6.33942000 6.32474000 0.27193729 -0.41868161 -1.03247055 -6.78535536
Mo 3.05388000 9.43629000 0.11750300 0.88638063 0.01535100 -1.15372926 -6.77400669
Mo 3.11123000 9.44221000 3.18062000 0.16281329 -0.07810682 0.05767649 -6.83332802
Mo 3.11392000 0.05518870 6.29487000 0.28837078 -0.53403715 0.27310559 -6.82223705
Mo 3.11678000 3.14753000 0.08104420 0.30472037 -0.32907143 -0.54618123 -6.78422147
Mo 3.14537000 3.11403000 3.24841000 -0.07283548 0.37052042 -0.57922753 -6.81852395
Mo 3.07462000 3.13965000 6.33370000 0.68255890 0.40055905 -0.01653044 -6.82080579
Mo 3.15156000 6.28037000 0.01451540 -0.01126352 0.02896939 -0.47758014 -6.79017831
Mo 3.13865000 6.34360000 3.13535000 -0.11802030 -0.54629859 0.25014127 -6.83384613
Mo 3.02979000 6.36657000 6.27807000 0.68313731 -0.37670804 0.01236692 -6.81852158
Mo 6.28149000 9.41355000 0.12843700 0.23009550 0.74876908 -1.49302201 -6.81962092
Mo 6.29094000 0.06392060 3.17278000 -0.16531720 -0.48857667 0.31321346 -6.84917822
Mo 6.23785000 0.05856240 6.39359000 0.24333507 -0.43979164 -0.20882127 -6.74793506
Mo 6.30451000 3.15765000 0.13422000 -0.09767996 -0.30511700 -0.96501434 -6.82303037
Mo 6.21698000 3.18164000 3.25939000 0.76254685 0.02143995 -0.43971048 -6.84593445
Mo 6.27126000 3.22317000 6.41521000 0.21179197 -0.83350700 -0.53865418 -6.80619577
Mo 6.28803000 6.31805000 0.12113200 0.34503840 -0.11179366 -1.61633849 -6.79567901
Mo 6.23136000 6.34934000 3.07563000 0.41863366 -0.23687576 1.16275791 -6.84720029
Mo 6.20919000 6.24508000 6.31199000 0.33337593 0.90694090 -0.29991173 -6.73553976
Mo 1.61410000 1.47918000 1.58938000 -0.29822238 0.56614540 0.07371192 -6.79940389
Mo 1.55980000 1.58630000 4.73203000 0.39810544 -0.23529888 -0.12639631 -6.84189673
Mo 1.62191000 1.57816000 7.81883000 0.03230061 0.00426005 0.73999896 -6.83796087
Mo 1.64069000 4.61023000 1.53948000 -0.57387307 0.58908057 0.21594242 -6.83149805
Mo 1.54818000 4.65126000 4.64066000 0.16675194 0.71135933 0.45596085 -6.82405678
Mo 1.67180000 4.72852000 7.88180000 -0.28338052 0.02645457 -0.29721435 -6.80854277
Mo 1.62360000 7.76110000 1.47989000 -0.38851664 0.47212395 0.90827912 -6.81339561
Mo 1.61613000 7.84627000 4.58712000 -0.38765585 -0.03068787 0.62091962 -6.78348569
Mo 1.55691000 7.87435000 7.85750000 0.70024009 0.05511503 -0.22506955 -6.83371952
Mo 4.72867000 1.50275000 1.57652000 0.01193315 0.57096263 -0.16507942 -6.79360459
Mo 4.77140000 1.58000000 4.67828000 -0.22258668 0.09747342 0.56605256 -6.79254994
Mo 4.72862000 1.56876000 7.81691000 0.14185828 -0.11662773 0.52127554 -6.79464283
Mo 4.74486000 4.69610000 1.50354000 -0.23685231 -0.05921958 0.79765356 -6.79530266
Mo 4.72000000 4.74304000 4.68444000 -0.09198786 0.25004990 0.26392165 -6.78062296
Mo 4.84689000 4.72108000 7.88889000 -0.89865031 -0.09502118 -0.22881989 -6.82785286
Mo 4.81074000 7.86721000 1.50211000 -0.82443294 0.13184389 0.85827879 -6.72270135
Mo 4.76482000 7.94436000 4.73730000 -0.21713653 -0.47582847 -0.04282284 -6.82481172
Mo 4.72319000 7.79926000 7.85585000 -0.02553320 0.61837191 -0.14504131 -6.83107685
Mo 7.92887000 1.61004000 1.50039000 -0.66392918 0.11507200 0.68182772 -6.71702396
Mo 7.96715000 1.48655000 4.76802000 -1.08349663 1.05353166 -0.31903884 -6.81262594
Mo 8.02175000 1.61066000 7.79671000 -1.39411821 -0.14421097 1.04259958 -6.78234704
Mo 7.87329000 4.76493000 1.52431000 0.07510568 -0.31874034 0.12063606 -6.74890461
Mo 7.90792000 4.68357000 4.60759000 -0.56104960 0.32246415 0.66548129 -6.80884639
Mo 7.93894000 4.80027000 7.77275000 -0.41558174 -0.58045332 0.69170759 -6.79052567
Mo 7.96812000 7.92628000 1.50039000 -0.58822791 -0.46528911 0.78363441 -6.74399097
Mo 7.85419000 7.91243000 4.75162000 0.07389067 -0.67482978 -0.51731780 -6.84592525
Mo 8.01982000 7.87398000 7.78691000 -1.65784677 0.38560941 0.80692602 -6.81454119
