54
Time=0.00000000 pbc="T T T" Lattice="9.45012100 0.00000000 0.00000000 0.00000000 9.45012100 0.00000000 0.00000000 0.00000000 9.45012100" energy=-363.43912221 virial="-11.21477387 -1.39719345 -1.97155611 -1.39719345 -14.43186735 0.57456169 -1.97155611 0.57456169 -11.76708246" stress="-0.01328857 -0.00165556 -0.00233613 -0.00165556 -0.01710056 0.00068081 -0.00233613 0.00068081 -0.01394301" Properties=species:S:1:pos:R:3:forces:R:3:energy_atom:R:1
Mo 9.42896000 0.04434000 0.11151100 -0.10653712 0.11025631 -0.85736286 -6.73062446
Mo 9.30500000 0.03552300 3.19006000 0.99557660 -0.69892766 0.28844977 -6.70858344
Mo 9.44247000 0.00707814 6.31534000 -0.05268200 0.02344967 0.26410693 -6.61860449
Mo 9.38347000 3.18008000 0.02675330 0.41891277 0.28284835 0.07924449 -6.80810354
Mo 9.42631000 3.14201000 3.15200000 -0.35291299 -0.19155107 0.45945884 -6.73779290
Mo 0.00996988 3.16434000 6.41466000 -0.14248782 0.57149884 -0.71409345 -6.73521616
Mo 9.40970000 6.36860000 9.38755000 0.14795675 -0.46975607 0.76474618 -6.71053425
Mo 9.36696000 6.15363000 3.07956000 0.25427382 1.06409126 0.75538050 -6.70314301
Mo 9.41615000 6.33942000 6.32474000 -0.16545641 -0.00584204 -0.72669076 -6.67447964
Mo 3.05388000 9.43629000 0.11750300 0.52666764 0.06109676 -0.95136078 -6.73444417
Mo 3.11123000 9.44221000 3.18062000 -0.23409442 0.21420470 0.60432191 -6.74056861
Mo 3.11392000 0.05518870 6.29487000 -0.27293964 -0.17466925 0.33490335 -6.73556513
Mo 3.11678000 3.14753000 0.08104420 -0.13435947 -0.07086145 -0.26659112 -6.70424812
Mo 3.14537000 3.11403000 3.24841000 -0.59682544 0.27283807 -0.22385142 -6.73171569
Mo 3.07462000 3.13965000 6.33370000 0.29661735 0.50552175 0.44077420 -6.75101912
Mo 3.15156000 6.28037000 0.01451540 -0.29027432 -0.01711970 -0.05384596 -6.72829224
Mo 3.13865000 6.34360000 3.13535000 -0.36940686 -0.14959660 0.33181568 -6.78113499
Mo 3.02979000 6.36657000 6.27807000 0.33343185 -0.05770909 0.52326985 -6.71674765
Mo 6.28149000 9.41355000 0.12843700 -0.14195367 0.45697296 -1.29036680 -6.73086922
Mo 6.29094000 0.06392060 3.17278000 -0.46209732 -0.13160537 0.83422954 -6.75910364
Mo 6.23785000 0.05856240 6.39359000 -0.15097276 -0.33156552 0.16315493 -6.67915159
Mo 6.30451000 3.15765000 0.13422000 -0.57627186 -0.17821966 -0.64941079 -6.75016476
Mo 6.21698000 3.18164000 3.25939000 0.43732836 -0.19954152 -0.07747326 -6.77900721
Mo 6.27126000 3.22317000 6.41521000 -0.20176002 -0.43036428 -0.31352794 -6.72622682
Mo 6.28803000 6.31805000 0.12113200 0.14606933 -0.11811806 -1.44678820 -6.77756441
Mo 6.23136000 6.34934000 3.07563000 -0.06181845 0.14851622 1.46997890 -6.76880861
Mo 6.20919000 6.24508000 6.31199000 0.01387814 0.78451888 0.15164864 -6.66806722
Mo 1.61410000 1.47918000 1.58938000 0.11564200 0.56148402 -0.18159609 -6.75009062
Mo 1.55980000 1.58630000 4.73203000 0.70315931 -0.57324302 -0.66665456 -6.74815872
Mo 1.62191000 1.57816000 7.81883000 0.49727976 -0.28562373 0.34095629 -6.75898121
Mo 1.64069000 4.61023000 1.53948000 -0.21650021 0.37948620 -0.22897989 -6.72012261
Mo 1.54818000 4.65126000 4.64066000 0.68376233 0.32889615 0.11007292 -6.70539869
Mo 1.67180000 4.72852000 7.88180000 0.06697181 -0.31558127 -0.16493284 -6.75936852
Mo 1.62360000 7.76110000 1.47989000 -0.01039141 0.17961905 0.66109064 -6.74527142
Mo 1.61613000 7.84627000 4.58712000 0.01721448 -0.24750029 0.33595662 -6.73281173
Mo 1.55691000 7.87435000 7.85750000 1.02578436 0.02555162 -0.49052400 -6.79889044
Mo 4.72867000 1.50275000 1.57652000 0.55547630 0.28622595 -0.40331032 -6.70485291
Mo 4.77140000 1.58000000 4.67828000 0.17353199 -0.15259984 0.19458265 -6.71455459
Mo 4.72862000 1.56876000 7.81691000 0.37165248 -0.08126832 0.14310448 -6.76274695
Mo 4.74486000 4.69610000 1.50354000 0.16464086 -0.21808968 0.44711512 -6.71867405
Mo 4.72000000 4.74304000 4.68444000 0.22542310 0.02111374 -0.11752462 -6.71010279
Mo 4.84689000 4.72108000 7.88889000 -0.65424222 -0.09150267 -0.33076575 -6.81140342
Mo 4.81074000 7.86721000 1.50211000 -0.56317385 -0.15395764 0.55013180 -6.65214268
Mo 4.76482000 7.94436000 4.73730000 0.21586305 -0.43768046 -0.64558404 -6.71939710
Mo 4.72319000 7.79926000 7.85585000 0.49138528 0.28849402 -0.34915621 -6.74925139
Mo 7.92887000 1.61004000 1.50039000 -0.26354914 0.11673516 0.39612086 -6.65844597
Mo 7.96715000 1.48655000 4.76802000 -0.78597512 1.02930448 -0.69219472 -6.77225953
Mo 8.02175000 1.61066000 7.79671000 -1.10435839 -0.25242641 0.70774914 -6.75157880
Mo 7.87329000 4.76493000 1.52431000 0.43313196 -0.37831011 -0.30034865 -6.69345887
Mo 7.90792000 4.68357000 4.60759000 -0.09396389 -0.09865218 0.44281274 -6.71786777
Mo 7.93894000 4.80027000 7.77275000 -0.02806456 -0.25026797 0.34301960 -6.70626192
Mo 7.96812000 7.92628000 1.50039000 -0.25689697 -0.19252070 0.44128782 -6.65053006
Mo 7.85419000 7.91243000 4.75162000 0.44979272 -0.67582816 -0.90814019 -6.79692328
Mo 8.01982000 7.87398000 7.78691000 -1.47145806 -0.08222435 0.47159081 -6.73979506
