ITEM: TIMESTEP
0
ITEM: NUMBER OF ATOMS
54
ITEM: BOX BOUNDS pp pp pp
0.0000000000000000e+00 9.4501209999999993e+00
0.0000000000000000e+00 9.4501209999999993e+00
0.0000000000000000e+00 9.4501209999999993e+00
ITEM: ATOMS id element type x y z fx fy fz c_pe
1 Mo 1 9.42896 0.04434 0.111511 0.439378 -0.229725 -1.49354 -6.79065
2 Mo 1 9.305 0.035523 3.19006 1.79848 -0.840254 -0.36373 -6.75213
3 Mo 1 9.44247 0.00707814 6.31534 0.547387 -0.244959 -0.309895 -6.72133
4 Mo 1 9.38347 3.18008 0.0267533 1.06387 -0.0292347 -0.275532 -6.87249
5 Mo 1 9.42631 3.14201 3.152 0.117476 -0.426893 -0.0592961 -6.8243
6 Mo 1 0.00996988 3.16434 6.41466 -0.0131016 0.340716 -1.38085 -6.76886
7 Mo 1 9.4097 6.3686 9.38755 0.715394 -1.08387 0.603489 -6.80567
8 Mo 1 9.36696 6.15363 3.07956 0.858417 1.71789 0.550385 -6.75868
9 Mo 1 9.41615 6.33942 6.32474 0.503436 -0.594735 -1.31662 -6.79756
10 Mo 1 3.05388 9.43629 0.117503 1.22129 0.0289456 -1.60969 -6.77758
11 Mo 1 3.11123 9.44221 3.18062 0.33357 -0.142278 -0.108288 -6.86013
12 Mo 1 3.11392 0.0551887 6.29487 0.310734 -0.742695 0.129878 -6.85532
13 Mo 1 3.11678 3.14753 0.0810442 0.514459 -0.39803 -0.85664 -6.80412
14 Mo 1 3.14537 3.11403 3.24841 0.0434972 0.282389 -0.985278 -6.83371
15 Mo 1 3.07462 3.13965 6.3337 1.04635 0.521341 -0.185771 -6.84555
16 Mo 1 3.15156 6.28037 0.0145154 0.0661714 0.0338038 -0.521126 -6.80953
17 Mo 1 3.13865 6.3436 3.13535 0.10511 -0.678874 0.0883467 -6.86735
18 Mo 1 3.02979 6.36657 6.27807 1.13159 -0.684486 -0.0250492 -6.84278
19 Mo 1 6.28149 9.41355 0.128437 0.427272 0.755098 -2.12446 -6.82462
20 Mo 1 6.29094 0.0639206 3.17278 -0.0284165 -0.628008 0.106256 -6.87535
21 Mo 1 6.23785 0.0585624 6.39359 0.519908 -0.515912 -0.329243 -6.77377
22 Mo 1 6.30451 3.15765 0.13422 0.0189548 -0.406077 -1.47346 -6.83839
23 Mo 1 6.21698 3.18164 3.25939 1.12279 -0.315762 -0.891093 -6.85559
24 Mo 1 6.27126 3.22317 6.41521 0.435895 -1.03864 -1.07109 -6.81759
25 Mo 1 6.28803 6.31805 0.121132 0.601076 -0.0754943 -2.07532 -6.78945
26 Mo 1 6.23136 6.34934 3.07563 0.690132 -0.230988 1.27011 -6.8838
27 Mo 1 6.20919 6.24508 6.31199 0.76838 1.0315 -0.486531 -6.75248
28 Mo 1 1.6141 1.47918 1.58938 -0.511923 0.927708 0.209718 -6.80872
29 Mo 1 1.5598 1.5863 4.73203 0.205506 -0.374339 -0.197093 -6.86864
30 Mo 1 1.62191 1.57816 7.81883 -0.188743 -0.127436 1.12537 -6.85397
31 Mo 1 1.64069 4.61023 1.53948 -0.759165 0.92628 0.201594 -6.84994
32 Mo 1 1.54818 4.65126 4.64066 0.222443 0.94446 0.835023 -6.84898
33 Mo 1 1.6718 4.72852 7.8818 -0.685465 0.0437856 -0.100296 -6.83031
34 Mo 1 1.6236 7.7611 1.47989 -0.723863 0.765756 1.32492 -6.80741
35 Mo 1 1.61613 7.84627 4.58712 -0.84097 0.139561 0.938031 -6.80292
36 Mo 1 1.55691 7.87435 7.8575 0.774845 0.232773 -0.0463371 -6.8593
37 Mo 1 4.72867 1.50275 1.57652 -0.0621809 0.833299 0.0140445 -6.81428
38 Mo 1 4.7714 1.58 4.67828 -0.391805 0.130896 0.868603 -6.80832
39 Mo 1 4.72862 1.56876 7.81691 0.0204715 -0.0603579 1.06236 -6.82852
40 Mo 1 4.74486 4.6961 1.50354 -0.452615 0.00641198 1.13658 -6.8032
41 Mo 1 4.72 4.74304 4.68444 -0.250973 0.176906 0.467434 -6.81362
42 Mo 1 4.84689 4.72108 7.88889 -1.49821 -0.0475099 -0.142984 -6.83531
43 Mo 1 4.81074 7.86721 1.50211 -1.16237 0.138123 1.06158 -6.7138
44 Mo 1 4.76482 7.94436 4.7373 -0.357855 -0.659428 -0.0948278 -6.86335
45 Mo 1 4.72319 7.79926 7.85585 -0.0758017 0.957492 0.130685 -6.87521
46 Mo 1 7.92887 1.61004 1.50039 -0.846428 0.0922409 1.00598 -6.71606
47 Mo 1 7.96715 1.48655 4.76802 -1.45687 1.5749 -0.251287 -6.81334
48 Mo 1 8.02175 1.61066 7.79671 -1.89741 -0.340169 1.40632 -6.77532
49 Mo 1 7.87329 4.76493 1.52431 0.0139768 -0.471823 0.268703 -6.75294
50 Mo 1 7.90792 4.68357 4.60759 -0.6912 0.425967 1.2602 -6.82506
51 Mo 1 7.93894 4.80027 7.77275 -0.641639 -0.638843 1.12239 -6.79003
52 Mo 1 7.96812 7.92628 1.50039 -0.839665 -0.592135 1.04714 -6.73988
53 Mo 1 7.85419 7.91243 4.75162 0.031988 -0.862778 -0.592577 -6.8978
54 Mo 1 8.01982 7.87398 7.78691 -2.29359 0.453489 1.13278 -6.80215
