ITEM: TIMESTEP
0
ITEM: NUMBER OF ATOMS
54
ITEM: BOX BOUNDS pp pp pp
0.0000000000000000e+00 9.4501209999999993e+00
0.0000000000000000e+00 9.4501209999999993e+00
0.0000000000000000e+00 9.4501209999999993e+00
ITEM: ATOMS id element type x y z fx fy fz c_pe
1 Mo 1 9.42896 0.04434 0.111511 0.460877 -0.205345 -1.81868 -10.7252
2 Mo 1 9.305 0.035523 3.19006 2.08665 -0.935027 -0.647225 -10.6883
3 Mo 1 9.44247 0.00707814 6.31534 0.649453 -0.138796 -0.121428 -10.6828
4 Mo 1 9.38347 3.18008 0.0267533 1.21267 0.21814 -0.299162 -10.8148
5 Mo 1 9.42631 3.14201 3.152 0.00215015 -0.711475 -0.16957 -10.7622
6 Mo 1 0.00996988 3.16434 6.41466 0.148557 0.503497 -1.81361 -10.7027
7 Mo 1 9.4097 6.3686 9.38755 0.779684 -1.17853 0.648904 -10.754
8 Mo 1 9.36696 6.15363 3.07956 1.09262 2.01515 0.333944 -10.6832
9 Mo 1 9.41615 6.33942 6.32474 0.59304 -0.771707 -1.68524 -10.7477
10 Mo 1 3.05388 9.43629 0.117503 1.51708 -0.207751 -1.82819 -10.7209
11 Mo 1 3.11123 9.44221 3.18062 0.443042 0.0360235 -0.168625 -10.7906
12 Mo 1 3.11392 0.0551887 6.29487 0.312703 -0.845276 0.0527654 -10.8193
13 Mo 1 3.11678 3.14753 0.0810442 0.673303 -0.808992 -0.996163 -10.7426
14 Mo 1 3.14537 3.11403 3.24841 -0.04961 0.232992 -1.21029 -10.7786
15 Mo 1 3.07462 3.13965 6.3337 1.39037 0.694658 -0.220716 -10.7926
16 Mo 1 3.15156 6.28037 0.0145154 0.212877 0.00677081 -0.520186 -10.7664
17 Mo 1 3.13865 6.3436 3.13535 0.211036 -1.04241 -0.178439 -10.804
18 Mo 1 3.02979 6.36657 6.27807 1.28035 -0.764147 -0.120485 -10.8062
19 Mo 1 6.28149 9.41355 0.128437 0.51157 0.881317 -1.98879 -10.7666
20 Mo 1 6.29094 0.0639206 3.17278 0.00845201 -0.62113 0.0630372 -10.8141
21 Mo 1 6.23785 0.0585624 6.39359 0.988396 -0.699346 -0.644306 -10.7151
22 Mo 1 6.30451 3.15765 0.13422 -0.153995 -0.412784 -1.49083 -10.7743
23 Mo 1 6.21698 3.18164 3.25939 1.30204 -0.166526 -1.18266 -10.7773
24 Mo 1 6.27126 3.22317 6.41521 0.59017 -1.22809 -1.21165 -10.7682
25 Mo 1 6.28803 6.31805 0.121132 0.653446 -0.270859 -2.18985 -10.7329
26 Mo 1 6.23136 6.34934 3.07563 0.796885 -0.338576 1.23842 -10.835
27 Mo 1 6.20919 6.24508 6.31199 0.980431 1.2551 -0.538188 -10.682
28 Mo 1 1.6141 1.47918 1.58938 -0.784605 1.03033 0.368418 -10.7382
29 Mo 1 1.5598 1.5863 4.73203 0.147558 -0.530857 -0.170073 -10.8174
30 Mo 1 1.62191 1.57816 7.81883 -0.38746 -0.148769 1.43365 -10.796
31 Mo 1 1.64069 4.61023 1.53948 -1.01944 1.0471 0.56473 -10.7929
32 Mo 1 1.54818 4.65126 4.64066 0.271408 1.07803 1.00787 -10.809
33 Mo 1 1.6718 4.72852 7.8818 -0.869383 0.141271 -0.117681 -10.7602
34 Mo 1 1.6236 7.7611 1.47989 -0.742041 0.706565 1.18075 -10.7606
35 Mo 1 1.61613 7.84627 4.58712 -1.33148 0.264681 1.22176 -10.7221
36 Mo 1 1.55691 7.87435 7.8575 0.666453 0.341279 -0.12328 -10.7984
37 Mo 1 4.72867 1.50275 1.57652 -0.0762546 0.988341 -0.0263051 -10.7794
38 Mo 1 4.7714 1.58 4.67828 -0.607413 0.044918 1.22765 -10.752
39 Mo 1 4.72862 1.56876 7.81691 -0.033497 0.113353 1.35112 -10.7531
40 Mo 1 4.74486 4.6961 1.50354 -0.430538 0.101554 1.34705 -10.7585
41 Mo 1 4.72 4.74304 4.68444 -0.353404 0.31935 0.625834 -10.757
42 Mo 1 4.84689 4.72108 7.88889 -1.77339 -0.0320671 0.270428 -10.7802
43 Mo 1 4.81074 7.86721 1.50211 -1.58225 0.0964915 1.27506 -10.6557
44 Mo 1 4.76482 7.94436 4.7373 -0.525273 -0.668049 -0.224463 -10.8373
45 Mo 1 4.72319 7.79926 7.85585 -0.0402835 1.0017 0.237874 -10.8195
46 Mo 1 7.92887 1.61004 1.50039 -0.919129 -0.0711796 1.34759 -10.6671
47 Mo 1 7.96715 1.48655 4.76802 -1.63023 1.84587 -0.165103 -10.7437
48 Mo 1 8.02175 1.61066 7.79671 -1.98621 -0.497959 1.46346 -10.7177
49 Mo 1 7.87329 4.76493 1.52431 0.0206568 -0.45548 -0.0130281 -10.7037
50 Mo 1 7.90792 4.68357 4.60759 -0.931602 0.390643 1.6611 -10.7597
51 Mo 1 7.93894 4.80027 7.77275 -0.485119 -0.677433 1.22452 -10.7315
52 Mo 1 7.96812 7.92628 1.50039 -0.934971 -0.708833 1.1223 -10.6871
53 Mo 1 7.85419 7.91243 4.75162 0.100587 -1.04677 -0.615361 -10.845
54 Mo 1 8.01982 7.87398 7.78691 -2.45692 0.829041 1.23134 -10.7314
