LAMMPS (29 Aug 2024 - Update 3)
# LAMMPS input for ADP verification
# Generate reference data for comparison with GPUMD

# Initialize
units metal
dimension 3
boundary p p p
atom_style atomic
read_data  Mo_structs_0.dat
Reading data file ...
  orthogonal box = (0 0 0) to (9.450121 9.450121 9.450121)
  1 by 1 by 1 MPI processor grid
  reading atoms ...
  54 atoms
  read_data CPU = 0.000 seconds


# Use the same ADP potential
pair_style adp
pair_coeff * * Mo.adp Mo
#pair_coeff * *  U_Mo.alloy.adp_cor.txt  Mo

# Set same temperature as GPUMD test
#velocity all create 300.0 12345
velocity all create 0.0001 12345

compute eng all pe/atom
compute eatoms all reduce sum c_eng
# Compute per-atom potential energy
compute pe all pe/atom

# Run and dump the same configuration
timestep 0.001
fix 1 all nve

neighbor  0  bin



thermo 1
thermo_style custom step etotal pe lx ly lz press pxx pyy pzz c_eatoms

# Dump forces, energies for first step
dump 1 all custom 1 lammps_mo_adp_reference.dump id element type x y z fx fy fz c_pe
dump_modify  1 element Mo sort id
# Run for 1 step to match GPUMD test
run 0
Neighbor list info ...
  update: every = 1 steps, delay = 0 steps, check = yes
  max neighbors/atom: 2000, page size: 100000
  master list distance cutoff = 6.5
  ghost atom cutoff = 6.5
  binsize = 3.25, bins = 3 3 3
  1 neighbor lists, perpetual/occasional/extra = 1 0 0
  (1) pair adp, perpetual
      attributes: half, newton on
      pair build: half/bin/atomonly/newton
      stencil: half/bin/3d
      bin: standard
Per MPI rank memory allocation (min/avg/max) = 5.864 | 5.864 | 5.864 Mbytes
   Step         TotEng         PotEng           Lx             Ly             Lz           Press           Pxx            Pyy            Pzz          c_eatoms   
         0  -580.92169     -580.92169      9.450121       9.450121       9.450121       72007.851      70721.701      74997.843      70304.008     -580.92169    
Loop time of 7.66e-07 on 1 procs for 0 steps with 54 atoms

130.5% CPU use with 1 MPI tasks x no OpenMP threads

MPI task timing breakdown:
Section |  min time  |  avg time  |  max time  |%varavg| %total
---------------------------------------------------------------
Pair    | 0          | 0          | 0          |   0.0 |  0.00
Neigh   | 0          | 0          | 0          |   0.0 |  0.00
Comm    | 0          | 0          | 0          |   0.0 |  0.00
Output  | 0          | 0          | 0          |   0.0 |  0.00
Modify  | 0          | 0          | 0          |   0.0 |  0.00
Other   |            | 7.66e-07   |            |       |100.00

Nlocal:             54 ave          54 max          54 min
Histogram: 1 0 0 0 0 0 0 0 0 0
Nghost:            801 ave         801 max         801 min
Histogram: 1 0 0 0 0 0 0 0 0 0
Neighs:           1728 ave        1728 max        1728 min
Histogram: 1 0 0 0 0 0 0 0 0 0

Total # of neighbors = 1728
Ave neighs/atom = 32
Neighbor list builds = 0
Dangerous builds = 0

# Additional information
print "LAMMPS ADP reference data generated"
LAMMPS ADP reference data generated
print "Total energy: $(etotal)"
Total energy: -580.92169424000496747
print "Potential energy: $(pe)"
Potential energy: -580.92169492508378426
print "Kinetic energy: $(ke)"
Kinetic energy: 6.8507876849999991762e-07
Total wall time: 0:00:00
