LAMMPS (29 Aug 2024 - Update 3)
# LAMMPS input for ADP verification
# Generate reference data for comparison with GPUMD

# Initialize
units metal
dimension 3
boundary p p p
atom_style atomic
read_data  Mo_structs_0.dat
Reading data file ...
  orthogonal box = (0 0 0) to (9.450121 9.450121 9.450121)
  1 by 1 by 1 MPI processor grid
  reading atoms ...
  54 atoms
  read_data CPU = 0.001 seconds


# Use the same ADP potential
pair_style adp
#pair_coeff * * Mo.adp Mo
pair_coeff * *  ../../adp_U_Mo/U_Mo.alloy.adp_cor.txt  Mo
#pair_coeff * * ../../adp_U_Mo/U_Mo.alloy.adp_cor_nowuw.txt  Mo
#pair_coeff * * ../../adp_U_Mo/U_Mo.alloy.adp_cor_noz2r.txt Mo

# Set same temperature as GPUMD test
#velocity all create 300.0 12345
velocity all create 0.0001 12345

compute eng all pe/atom
compute eatoms all reduce sum c_eng
# Compute per-atom potential energy
compute pe all pe/atom

# Run and dump the same configuration
timestep 0.001
fix 1 all nve

neighbor  0  bin



thermo 1
thermo_style custom step etotal pe lx ly lz press pxx pyy pzz c_eatoms

# Dump forces, energies for first step
dump 1 all custom 1 lammps_adp_reference.dump id element type x y z fx fy fz c_pe
dump_modify  1 element Mo sort id
# Run for 1 step to match GPUMD test
run 0
Neighbor list info ...
  update: every = 1 steps, delay = 0 steps, check = yes
  max neighbors/atom: 2000, page size: 100000
  master list distance cutoff = 6.196997
  ghost atom cutoff = 6.196997
  binsize = 3.0984985, bins = 4 4 4
  1 neighbor lists, perpetual/occasional/extra = 1 0 0
  (1) pair adp, perpetual
      attributes: half, newton on
      pair build: half/bin/atomonly/newton
      stencil: half/bin/3d
      bin: standard
Per MPI rank memory allocation (min/avg/max) = 5.836 | 5.836 | 5.836 Mbytes
   Step         TotEng         PotEng           Lx             Ly             Lz           Press           Pxx            Pyy            Pzz          c_eatoms   
         0  -367.99712     -367.99712      9.450121       9.450121       9.450121       26950.861      26398.626      28306.957      26147         -367.99712    
Loop time of 6.07e-07 on 1 procs for 0 steps with 54 atoms

164.7% CPU use with 1 MPI tasks x no OpenMP threads

MPI task timing breakdown:
Section |  min time  |  avg time  |  max time  |%varavg| %total
---------------------------------------------------------------
Pair    | 0          | 0          | 0          |   0.0 |  0.00
Neigh   | 0          | 0          | 0          |   0.0 |  0.00
Comm    | 0          | 0          | 0          |   0.0 |  0.00
Output  | 0          | 0          | 0          |   0.0 |  0.00
Modify  | 0          | 0          | 0          |   0.0 |  0.00
Other   |            | 6.07e-07   |            |       |100.00

Nlocal:             54 ave          54 max          54 min
Histogram: 1 0 0 0 0 0 0 0 0 0
Nghost:            513 ave         513 max         513 min
Histogram: 1 0 0 0 0 0 0 0 0 0
Neighs:           1576 ave        1576 max        1576 min
Histogram: 1 0 0 0 0 0 0 0 0 0

Total # of neighbors = 1576
Ave neighs/atom = 29.185185
Neighbor list builds = 0
Dangerous builds = 0

# Additional information
print "LAMMPS ADP reference data generated"
LAMMPS ADP reference data generated
print "Total energy: $(etotal)"
Total energy: -367.99712357238604454
print "Potential energy: $(pe)"
Potential energy: -367.99712425746480449
print "Kinetic energy: $(ke)"
Kinetic energy: 6.8507876850000012938e-07

Total wall time: 0:00:00
