54
Time=0.00000000 pbc="T T T" Lattice="9.45012100 0.00000000 0.00000000 0.00000000 9.45012100 0.00000000 0.00000000 0.00000000 9.45012100" energy=-367.99711923 virial="13.90544648 0.30132457 1.12784886 0.30132457 14.91062539 -0.19248985 1.12784886 -0.19248985 13.77288461" stress="0.01647680 0.00035704 0.00133641 0.00035704 0.01766785 -0.00022808 0.00133641 -0.00022808 0.01631972" Properties=species:S:1:pos:R:3:forces:R:3:energy_atom:R:1
Mo 9.42896000 0.04434000 0.11151100 0.43941821 -0.22970441 -1.49353737 -6.79065472
Mo 9.30500000 0.03552300 3.19006000 1.79858247 -0.84026656 -0.36371973 -6.75212633
Mo 9.44247000 0.00707814 6.31534000 0.54734823 -0.24493885 -0.30992181 -6.72132796
Mo 9.38347000 3.18008000 0.02675330 1.06387820 -0.02925491 -0.27554371 -6.87248623
Mo 9.42631000 3.14201000 3.15200000 0.11743260 -0.42680013 -0.05923791 -6.82430126
Mo 0.00996988 3.16434000 6.41466000 -0.01308802 0.34063722 -1.38087621 -6.76885599
Mo 9.40970000 6.36860000 9.38755000 0.71544448 -1.08391368 0.60352784 -6.80566619
Mo 9.36696000 6.15363000 3.07956000 0.85839215 1.71780571 0.55037484 -6.75868969
Mo 9.41615000 6.33942000 6.32474000 0.50340760 -0.59468640 -1.31663782 -6.79756244
Mo 3.05388000 9.43629000 0.11750300 1.22132374 0.02888840 -1.60967290 -6.77758441
Mo 3.11123000 9.44221000 3.18062000 0.33351025 -0.14227992 -0.10829780 -6.86012775
Mo 3.11392000 0.05518870 6.29487000 0.31074641 -0.74271159 0.12984416 -6.85531414
Mo 3.11678000 3.14753000 0.08104420 0.51449341 -0.39799166 -0.85662963 -6.80411820
Mo 3.14537000 3.11403000 3.24841000 0.04349558 0.28240974 -0.98524917 -6.83370801
Mo 3.07462000 3.13965000 6.33370000 1.04630823 0.52138430 -0.18580448 -6.84554826
Mo 3.15156000 6.28037000 0.01451540 0.06616921 0.03382514 -0.52113002 -6.80952348
Mo 3.13865000 6.34360000 3.13535000 0.10510548 -0.67885665 0.08836103 -6.86735391
Mo 3.02979000 6.36657000 6.27807000 1.13166794 -0.68456342 -0.02500690 -6.84277819
Mo 6.28149000 9.41355000 0.12843700 0.42721894 0.75508982 -2.12447169 -6.82462168
Mo 6.29094000 0.06392060 3.17278000 -0.02846415 -0.62799038 0.10629981 -6.87534763
Mo 6.23785000 0.05856240 6.39359000 0.51986252 -0.51591303 -0.32920202 -6.77376791
Mo 6.30451000 3.15765000 0.13422000 0.01888991 -0.40603724 -1.47347415 -6.83838568
Mo 6.21698000 3.18164000 3.25939000 1.12280615 -0.31577221 -0.89104363 -6.85559381
Mo 6.27126000 3.22317000 6.41521000 0.43589718 -1.03863194 -1.07105090 -6.81759603
Mo 6.28803000 6.31805000 0.12113200 0.60102273 -0.07549909 -2.07532169 -6.78944468
Mo 6.23136000 6.34934000 3.07563000 0.69017951 -0.23101309 1.27008238 -6.88379945
Mo 6.20919000 6.24508000 6.31199000 0.76838078 1.03154551 -0.48649981 -6.75247672
Mo 1.61410000 1.47918000 1.58938000 -0.51192901 0.92767707 0.20971452 -6.80871977
Mo 1.55980000 1.58630000 4.73203000 0.20548573 -0.37439085 -0.19714703 -6.86863890
Mo 1.62191000 1.57816000 7.81883000 -0.18884721 -0.12741844 1.12541235 -6.85396167
Mo 1.64069000 4.61023000 1.53948000 -0.75915078 0.92631475 0.20160619 -6.84994262
Mo 1.54818000 4.65126000 4.64066000 0.22239878 0.94449957 0.83502621 -6.84897480
Mo 1.67180000 4.72852000 7.88180000 -0.68542900 0.04377463 -0.10031755 -6.83031214
Mo 1.62360000 7.76110000 1.47989000 -0.72387776 0.76577308 1.32491247 -6.80740421
Mo 1.61613000 7.84627000 4.58712000 -0.84094846 0.13962591 0.93799125 -6.80291429
Mo 1.55691000 7.87435000 7.85750000 0.77482736 0.23278239 -0.04629639 -6.85929893
Mo 4.72867000 1.50275000 1.57652000 -0.06216560 0.83328636 0.01398626 -6.81428401
Mo 4.77140000 1.58000000 4.67828000 -0.39175033 0.13093572 0.86861727 -6.80832328
Mo 4.72862000 1.56876000 7.81691000 0.02054087 -0.06039180 1.06240191 -6.82851536
Mo 4.74486000 4.69610000 1.50354000 -0.45263166 0.00636488 1.13659479 -6.80320000
Mo 4.72000000 4.74304000 4.68444000 -0.25102055 0.17694168 0.46747344 -6.81361499
Mo 4.84689000 4.72108000 7.88889000 -1.49819220 -0.04747995 -0.14305263 -6.83531271
Mo 4.81074000 7.86721000 1.50211000 -1.16239889 0.13810500 1.06151467 -6.71380311
Mo 4.76482000 7.94436000 4.73730000 -0.35789163 -0.65946307 -0.09482920 -6.86334570
Mo 4.72319000 7.79926000 7.85585000 -0.07578769 0.95749147 0.13067727 -6.87521125
Mo 7.92887000 1.61004000 1.50039000 -0.84642739 0.09219644 1.00594521 -6.71605531
Mo 7.96715000 1.48655000 4.76802000 -1.45683425 1.57495191 -0.25125442 -6.81333585
Mo 8.02175000 1.61066000 7.79671000 -1.89733486 -0.34017777 1.40628560 -6.77532372
Mo 7.87329000 4.76493000 1.52431000 0.01403585 -0.47179428 0.26878401 -6.75294283
Mo 7.90792000 4.68357000 4.60759000 -0.69118868 0.42590753 1.26009690 -6.82506656
Mo 7.93894000 4.80027000 7.77275000 -0.64163215 -0.63880054 1.12242878 -6.79003044
Mo 7.96812000 7.92628000 1.50039000 -0.83970372 -0.59214661 1.04710765 -6.73987728
Mo 7.85419000 7.91243000 4.75162000 0.03204491 -0.86283744 -0.59259762 -6.89780309
Mo 8.01982000 7.87398000 7.78691000 -2.29362143 0.45351166 1.13275738 -6.80214568
