ITEM: TIMESTEP
0
ITEM: NUMBER OF ATOMS
250
ITEM: BOX BOUNDS pp pp pp
0.0000000000000000e+00 1.6430000000000000e+01
0.0000000000000000e+00 1.6430000000000000e+01
0.0000000000000000e+00 1.6430000000000000e+01
ITEM: ATOMS id type x y z
1 1 3.37903 3.21595 3.34943
2 1 3.22537 6.649 6.59442
3 1 3.04653 9.88847 9.95942
4 1 3.19644 13.057 12.854
5 1 3.28014 0.02558 16.2569
6 1 6.89186 3.26654 6.79219
7 1 7.07003 7.00242 9.95933
8 1 6.5905 9.91007 12.8194
9 1 6.50392 13.4536 16.3831
10 1 6.32488 0.17861 3.35314
11 1 9.84789 3.02439 9.97825
12 1 9.70343 6.18374 13.1059
13 1 10.1054 9.88049 16.307
14 1 9.99987 13.2871 3.36556
15 1 9.61997 16.3102 6.86786
16 1 12.8298 3.1992 12.991
17 1 13.2569 6.48798 0.0208
18 1 13.0557 9.95095 3.50215
19 1 13.1082 13.0648 6.38535
20 1 12.9505 0.011 9.82193
21 1 16.3389 3.05088 16.3976
22 1 16.1125 6.80659 3.58241
23 1 16.3725 10.0151 6.65345
24 1 16.2919 13.1393 9.71366
25 1 16.0278 16.3799 13.3929
26 1 6.51027 6.44032 3.34897
27 1 6.52208 9.94778 6.41252
28 1 6.24962 13.1181 9.51406
29 1 7.01391 0.0219 13.2674
30 1 6.16691 3.60319 16.1847
31 1 9.86926 6.58437 6.69048
32 1 9.9992 9.82885 9.78948
33 1 10.079 13.0973 13.0588
34 1 9.56119 16.259 0.10883
35 1 9.65768 3.47572 3.1866
36 1 13.6145 6.47835 9.62182
37 1 13.1096 9.5576 13.2515
38 1 12.8931 13.0407 16.2512
39 1 13.2113 0.20132 3.26353
40 1 13.3901 3.40459 6.32526
41 1 0.1561 6.35776 13.3318
42 1 16.4258 9.81207 0.03151
43 1 0.09936 13.1104 3.16534
44 1 0.08103 16.3675 6.7299
45 1 0.04346 3.32217 9.44679
46 1 3.23598 6.70075 16.1939
47 1 2.96592 9.92733 3.10002
48 1 3.18561 13.3561 6.48076
49 1 3.16585 0.05343 9.52971
50 1 3.582 3.20162 12.9147
51 1 10.2813 9.70484 3.40137
52 1 9.68966 13.3426 6.42941
53 1 9.82888 0.07035 10.0179
54 1 9.80003 3.54185 13.4227
55 1 9.72144 6.3575 0.24348
56 1 13.3045 9.89762 6.9062
57 1 13.5837 13.0287 9.85349
58 1 12.9391 16.1391 13.2532
59 1 13.4852 2.85253 16.0946
60 1 13.2736 6.863 3.13995
61 1 0.38076 10.0114 9.9509
62 1 0.09577 12.9743 12.9947
63 1 16.2611 16.2886 16.4007
64 1 16.3575 3.54822 3.21602
65 1 16.3707 6.86173 6.91654
66 1 3.10718 9.58093 13.2063
67 1 3.36092 13.0915 16.3346
68 1 3.23598 16.2692 3.34748
69 1 3.08122 3.49648 6.43911
70 1 3.43233 6.39037 9.74753
71 1 6.35621 10.0582 0.00173
72 1 6.91506 13.1245 3.35885
73 1 6.37725 0.07775 6.32433
74 1 6.9701 3.26287 9.84459
75 1 6.59103 6.67137 13.392
76 1 13.295 12.9681 3.48935
77 1 13.0104 15.9679 6.91974
78 1 13.024 2.99239 9.53362
79 1 13.0238 6.1418 13.1961
80 1 13.6323 9.8172 16.3767
81 1 16.238 13.1657 6.37703
82 1 0.26832 0.00339 10.1326
83 1 0.14189 3.11478 13.0553
84 1 0.11376 6.86234 0.12693
85 1 0.31389 9.71953 3.26595
86 1 3.13046 13.3196 9.77042
87 1 2.90681 16.2343 13.3445
88 1 3.25318 3.33647 16.4068
89 1 3.46174 6.46793 3.54296
90 1 3.2837 10.0627 6.37825
91 1 6.33804 13.2895 12.9897
92 1 6.56101 0.35679 16.1657
93 1 6.71833 3.42599 3.06038
94 1 6.73099 6.60606 6.28913
95 1 6.74622 10.2467 9.83051
96 1 9.67944 13.2192 0.38227
97 1 10.0989 16.3393 3.20828
98 1 9.66256 3.10769 6.37578
99 1 9.77414 6.0855 9.91385
100 1 10.146 9.938 13.5571
101 1 16.3922 16.3176 3.28029
102 1 16.2125 2.97 6.47703
103 1 0.20192 6.52179 9.98982
104 1 0.22946 9.60469 13.3205
105 1 0.21392 13.4667 16.3039
106 1 3.12992 16.3154 6.40063
107 1 3.19255 3.523 9.63372
108 1 2.97393 6.33304 12.9947
109 1 3.83788 9.63984 16.2346
110 1 3.1337 13.2834 3.21507
111 1 6.38344 0.38273 10.0884
112 1 6.43562 2.84958 13.1001
113 1 6.78534 6.56406 15.9732
114 1 6.51988 9.73706 3.29167
115 1 6.49713 13.1536 6.55552
116 1 9.51564 16.2263 13.2519
117 1 9.59069 3.38891 16.337
118 1 9.75515 6.81225 3.5291
119 1 9.6468 9.72415 6.40185
120 1 9.8443 12.9451 10.0675
121 1 12.9024 16.4154 16.3792
122 1 13.4342 3.09482 3.11048
123 1 13.1624 6.58471 6.595
124 1 13.0091 9.71359 9.60965
125 1 13.0643 12.9449 13.2665
126 2 16.1807 0.24319 0.29396
127 2 0.07783 3.09354 3.25189
128 2 16.2911 6.4655 6.85459
129 2 16.06 10.0225 9.73292
130 2 0.11365 12.8025 13.1205
131 2 3.47574 0.05733 3.16973
132 2 2.91397 3.41923 6.44713
133 2 3.32216 6.92148 9.7942
134 2 3.50452 9.52677 13.3313
135 2 3.2805 13.1187 16.3933
136 2 6.42603 16.4237 6.85347
137 2 6.59941 3.90484 9.50742
138 2 6.28393 6.65402 12.8733
139 2 6.78646 10.174 15.8431
140 2 6.52277 13.1923 3.11973
141 2 9.94958 16.2382 9.72522
142 2 9.62304 2.87937 13.317
143 2 9.72149 6.69008 0.08501
144 2 9.55617 9.80742 3.30992
145 2 9.90864 12.6946 6.52304
146 2 12.5959 16.2518 13.1751
147 2 12.8203 3.23548 16.3625
148 2 12.8644 6.92857 3.08899
149 2 13.4029 9.75731 6.43657
150 2 13.2752 13.0375 10.1035
151 2 2.99078 3.74895 0.14506
152 2 2.89475 6.72966 3.40776
153 2 3.17787 10.0122 6.91583
154 2 3.30892 13.2461 9.6609
155 2 3.28728 16.3756 13.2232
156 2 6.35184 3.4622 3.23384
157 2 6.28935 6.48412 6.50339
158 2 6.77414 10.0242 9.4367
159 2 6.97527 13.3515 13.1033
160 2 6.54802 0.47575 0.4539
161 2 10.0466 3.25194 6.74631
162 2 9.97415 6.44406 9.96695
163 2 9.78281 9.45913 13.2219
164 2 9.66924 13.2914 0.02606
165 2 10.2899 0.34903 3.10962
166 2 13.2105 3.39925 9.94
167 2 12.797 6.00697 12.6839
168 2 13.2465 9.77888 0.39449
169 2 13.1717 13.1203 2.98083
170 2 13.0074 16.2895 6.72241
171 2 0.16693 3.2968 13.1257
172 2 16.319 6.62641 0.2524
173 2 16.429 9.81931 3.05178
174 2 16.294 13.1869 6.64992
175 2 16.2369 16.3665 10.3458
176 2 6.39724 6.88063 16.4155
177 2 6.68613 9.87837 3.29635
178 2 6.3144 13.6804 6.51803
179 2 6.14994 16.1137 10.0703
180 2 6.62575 3.31921 13.0264
181 2 9.8342 6.7037 3.35255
182 2 9.65315 10.0425 6.41665
183 2 9.70286 13.0451 9.55495
184 2 10.0727 0.05333 13.4393
185 2 9.64611 3.23417 16.394
186 2 13.0721 6.98095 6.37694
187 2 13.3953 9.77395 10.0418
188 2 13.4087 12.8351 12.7807
189 2 13.1648 16.025 16.3892
190 2 13.3728 3.33608 3.23476
191 2 0.38307 6.53452 10.1149
192 2 16.217 9.93311 13.0944
193 2 16.3237 12.8074 0.04035
194 2 16.3276 0.24427 3.73303
195 2 16.3813 3.69503 6.4814
196 2 3.3629 6.55779 12.9511
197 2 2.95797 9.61879 0.1007
198 2 3.76309 12.8799 3.40534
199 2 3.34241 0.24599 6.39814
200 2 3.3354 3.0394 9.77057
201 2 9.27615 9.98037 0.36114
202 2 10.211 12.6506 3.34515
203 2 9.76408 0.01183 6.70343
204 2 9.81295 2.99097 9.85557
205 2 9.92924 6.73306 13.7784
206 2 13.9077 9.83855 3.14025
207 2 13.0284 12.8836 6.6846
208 2 13.4659 0.03171 10.203
209 2 13.0001 2.93939 12.893
210 2 13.3577 6.26499 0.07013
211 2 0.14938 9.8394 6.8442
212 2 0.08074 12.9877 9.79772
213 2 16.2094 0.17892 13.4329
214 2 16.379 3.63897 16.222
215 2 0.27732 6.69409 3.27278
216 2 3.70783 9.66894 9.7847
217 2 3.30716 12.8618 13.1045
218 2 3.63591 16.2258 0.25127
219 2 3.32385 3.0187 3.11006
220 2 3.47229 7.05999 6.77436
221 2 6.54347 10.2191 13.1125
222 2 6.81255 13.078 0.09958
223 2 6.85227 0.0988 3.1267
224 2 6.47099 3.67209 6.31084
225 2 6.52849 6.42502 10.2126
226 2 13.3137 13.095 0.17383
227 2 13.0651 16.2805 3.56998
228 2 12.8301 3.02299 6.56541
229 2 13.0116 6.35832 9.37207
230 2 13.3764 9.50972 12.6642
231 2 0.08606 13.127 3.12898
232 2 16.425 0.01652 6.89316
233 2 16.3263 3.21926 9.85887
234 2 0.00266 6.40623 13.0424
235 2 0.49824 10.229 16.1834
236 2 3.16719 13.2666 6.78958
237 2 3.48206 0.4594 9.91817
238 2 3.45255 3.11135 13.069
239 2 3.55436 6.66861 0.13803
240 2 3.41656 9.90135 3.25055
241 2 6.45146 13.3501 9.84117
242 2 6.22687 0.04404 13.2245
243 2 6.37579 3.57309 15.915
244 2 6.74384 6.54541 3.08953
245 2 6.26898 10.3789 6.13692
246 2 9.79677 12.7599 13.2062
247 2 9.75878 0.21136 0.24044
248 2 10.1312 3.13504 3.20403
249 2 9.65855 6.27919 6.60721
250 2 9.72313 9.68365 9.99979
ITEM: TIMESTEP
100
ITEM: NUMBER OF ATOMS
189
ITEM: BOX BOUNDS pp pp pp
0.0000000000000000e+00 1.6430000000000000e+01
0.0000000000000000e+00 1.6430000000000000e+01
0.0000000000000000e+00 1.6430000000000000e+01
ITEM: ATOMS id type x y z
1 1 3.37903 3.21595 3.34943
2 1 3.22537 6.649 6.59442
3 1 3.04653 9.88847 9.95942
4 1 3.19644 13.057 12.854
5 1 3.28014 0.02558 16.2569
6 1 6.89186 3.26654 6.79219
7 1 7.07003 7.00242 9.95933
8 1 6.5905 9.91007 12.8194
9 1 6.50392 13.4536 16.3831
10 1 6.32488 0.17861 3.35314
11 1 9.84789 3.02439 9.97825
12 1 9.70343 6.18374 13.1059
13 1 10.1054 9.88049 16.307
14 1 9.99987 13.2871 3.36556
15 1 9.61997 16.3102 6.86786
16 1 12.8298 3.1992 12.991
17 1 13.2569 6.48798 0.0208
18 1 13.0557 9.95095 3.50215
19 1 13.1082 13.0648 6.38535
20 1 12.9505 0.011 9.82193
21 1 16.3389 3.05088 16.3976
22 1 16.1125 6.80659 3.58241
23 1 16.3725 10.0151 6.65345
24 1 16.2919 13.1393 9.71366
25 1 16.0278 16.3799 13.3929
26 1 6.51027 6.44032 3.34897
27 1 6.52208 9.94778 6.41252
28 1 6.24962 13.1181 9.51406
29 1 7.01391 0.0219 13.2674
30 1 6.16691 3.60319 16.1847
31 1 9.86926 6.58437 6.69048
32 1 9.9992 9.82885 9.78948
33 1 10.079 13.0973 13.0588
34 1 9.56119 16.259 0.10883
35 1 9.65768 3.47572 3.1866
36 1 13.6145 6.47835 9.62182
37 1 13.1096 9.5576 13.2515
38 1 12.8931 13.0407 16.2512
39 1 13.2113 0.20132 3.26353
40 1 13.3901 3.40459 6.32526
41 1 0.1561 6.35776 13.3318
42 1 16.4258 9.81207 0.03151
43 1 0.09936 13.1104 3.16534
44 1 0.08103 16.3675 6.7299
45 1 0.04346 3.32217 9.44679
46 1 3.23598 6.70075 16.1939
47 1 2.96592 9.92733 3.10002
48 1 3.18561 13.3561 6.48076
49 1 3.16585 0.05343 9.52971
50 1 3.582 3.20162 12.9147
51 1 10.2813 9.70484 3.40137
52 1 9.68966 13.3426 6.42941
53 1 9.82888 0.07035 10.0179
54 1 9.80003 3.54185 13.4227
55 1 9.72144 6.3575 0.24348
56 1 13.3045 9.89762 6.9062
57 1 13.5837 13.0287 9.85349
58 1 12.9391 16.1391 13.2532
59 1 13.4852 2.85253 16.0946
60 1 13.2736 6.863 3.13995
61 1 0.38076 10.0114 9.9509
62 1 0.09577 12.9743 12.9947
63 1 16.2611 16.2886 16.4007
64 1 16.3575 3.54822 3.21602
65 1 16.3707 6.86173 6.91654
66 1 3.10718 9.58093 13.2063
67 1 3.36092 13.0915 16.3346
68 1 3.23598 16.2692 3.34748
69 1 3.08122 3.49648 6.43911
70 1 3.43233 6.39037 9.74753
71 1 6.35621 10.0582 0.00173
72 1 6.91506 13.1245 3.35885
73 1 6.37725 0.07775 6.32433
74 1 6.9701 3.26287 9.84459
75 1 6.59103 6.67137 13.392
76 1 13.295 12.9681 3.48935
77 1 13.0104 15.9679 6.91974
78 1 13.024 2.99239 9.53362
79 1 13.0238 6.1418 13.1961
80 1 13.6323 9.8172 16.3767
81 1 16.238 13.1657 6.37703
82 1 0.26832 0.00339 10.1326
83 1 0.14189 3.11478 13.0553
84 1 0.11376 6.86234 0.12693
85 1 0.31389 9.71953 3.26595
86 1 3.13046 13.3196 9.77042
87 1 2.90681 16.2343 13.3445
88 1 3.25318 3.33647 16.4068
89 1 3.46174 6.46793 3.54296
90 1 3.2837 10.0627 6.37825
91 1 6.33804 13.2895 12.9897
92 1 6.56101 0.35679 16.1657
93 1 6.71833 3.42599 3.06038
94 1 6.73099 6.60606 6.28913
95 1 6.74622 10.2467 9.83051
96 1 9.67944 13.2192 0.38227
97 1 10.0989 16.3393 3.20828
98 1 9.66256 3.10769 6.37578
99 1 9.77414 6.0855 9.91385
100 1 10.146 9.938 13.5571
101 1 16.3922 16.3176 3.28029
102 1 16.2125 2.97 6.47703
103 1 0.20192 6.52179 9.98982
104 1 0.22946 9.60469 13.3205
105 1 0.21392 13.4667 16.3039
106 1 3.12992 16.3154 6.40063
107 1 3.19255 3.523 9.63372
108 1 2.97393 6.33304 12.9947
109 1 3.83788 9.63984 16.2346
110 1 3.1337 13.2834 3.21507
111 1 6.38344 0.38273 10.0884
112 1 6.43562 2.84958 13.1001
113 1 6.78534 6.56406 15.9732
114 1 6.51988 9.73706 3.29167
115 1 6.49713 13.1536 6.55552
116 1 9.51564 16.2263 13.2519
117 1 9.59069 3.38891 16.337
118 1 9.75515 6.81225 3.5291
119 1 9.6468 9.72415 6.40185
120 1 9.8443 12.9451 10.0675
121 1 12.9024 16.4154 16.3792
122 1 13.4342 3.09482 3.11048
123 1 13.1624 6.58471 6.595
124 1 13.0091 9.71359 9.60965
125 1 13.0643 12.9449 13.2665
129 2 16.06 10.0225 9.73292
130 2 0.127306 12.315 13.9198
132 2 2.91397 3.41923 6.44713
133 2 3.83031 7.27143 9.37053
137 2 6.36978 4.4449 8.18481
138 2 6.28393 6.65402 12.8733
139 2 7.89375 10.4152 15.2805
140 2 5.71987 12.8121 3.00964
142 2 9.62304 2.87937 13.317
143 2 9.72149 6.69008 0.08501
144 2 9.376 9.77348 2.95449
147 2 12.8203 3.23548 16.3625
151 2 2.99078 3.74895 0.14506
153 2 2.64641 9.75351 6.56313
155 2 3.28728 16.3756 13.2232
157 2 5.75071 5.4479 6.82492
159 2 6.97527 13.3515 13.1033
163 2 9.59912 8.25015 13.8864
169 2 11.8523 12.208 2.7821
170 2 13.0074 16.2895 6.72241
171 2 0.16693 3.2968 13.1257
175 2 15.9075 0.286552 10.1811
179 2 5.96848 16.3097 10.6518
180 2 5.94402 3.46414 12.8976
181 2 9.82511 5.93444 2.4571
182 2 9.65315 10.0425 6.41665
183 2 9.80217 14.1331 8.14122
186 2 13.0721 6.98095 6.37694
187 2 13.9269 9.94381 10.8701
188 2 12.4647 13.4413 11.8577
189 2 13.1648 16.025 16.3892
190 2 11.9272 1.90708 4.0592
191 2 0.38307 6.53452 10.1149
194 2 16.3276 0.24427 3.73303
195 2 0.532879 3.78104 6.04787
196 2 3.71133 6.55877 13.3754
197 2 2.85555 10.1917 15.4347
198 2 3.89681 12.2279 3.73859
199 2 4.08533 0.511234 6.36139
201 2 9.19775 10.3761 0.147938
202 2 10.4844 12.5617 3.69139
203 2 10.0125 0.476017 6.29942
207 2 13.0284 12.8836 6.6846
209 2 13.3396 2.1347 12.4192
215 2 0.27732 6.69409 3.27278
216 2 3.70783 9.66894 9.7847
218 2 3.79896 0.168409 0.851461
220 2 4.05196 7.61352 5.93472
221 2 7.02924 10.4751 13.3732
223 2 6.85227 0.0988 3.1267
226 2 13.3137 13.095 0.17383
227 2 12.5772 0.030933 3.60301
228 2 12.874 3.27115 7.42748
229 2 13.0116 6.35832 9.37207
230 2 13.3764 9.50972 12.6642
233 2 16.3263 3.21926 9.85887
239 2 3.55436 6.66861 0.13803
241 2 5.77129 13.7097 10.2691
244 2 6.75588 6.90999 2.50309
245 2 6.40655 10.5163 5.52942
246 2 10.2454 12.3887 13.251
247 2 8.93136 16.1704 0.88663
249 2 9.22274 5.56618 7.09984
250 2 9.50705 9.96396 9.1389
