
***************************************************************
*                 Welcome to use GPUMD                        *
*     (Graphics Processing Units Molecular Dynamics)          *
*                     version 4.2                             *
*              This is the gpumd executable                   *
***************************************************************


---------------------------------------------------------------
Compiling options:
---------------------------------------------------------------

DEBUG is off: Use different PRNG seeds for different runs.

---------------------------------------------------------------
GPU information:
---------------------------------------------------------------

number of GPUs = 1
Device id:                   0
    Device name:             NVIDIA GeForce RTX 4060 Laptop GPU
    Compute capability:      8.9
    Amount of global memory: 7.99561 GB
    Number of SMs:           24

---------------------------------------------------------------
Started running GPUMD.
---------------------------------------------------------------


---------------------------------------------------------------
Started initializing positions and related parameters.
---------------------------------------------------------------

Number of atoms is 250.
Use periodic boundary conditions along x.
Use periodic boundary conditions along y.
Use periodic boundary conditions along z.
Box matrix h = [a, b, c] is
    0.0000000000e+00    1.6425982650e+01    1.6425982650e+01
    1.6425982650e+01    0.0000000000e+00    1.6425982650e+01
    1.6425982650e+01    1.6425982650e+01    0.0000000000e+00
Inverse box matrix g = inv(h) is
   -3.0439579211e-02    3.0439579211e-02    3.0439579211e-02
    3.0439579211e-02   -3.0439579211e-02    3.0439579211e-02
    3.0439579211e-02    3.0439579211e-02   -3.0439579211e-02
Do not specify initial velocities here.
Have 1 grouping method(s).
There is only one group of atoms in grouping method 0.
    250 atoms in group 0.
There are 2 atom types.
    125 atoms of type 0.
    125 atoms of type 1.
Initialized velocities with default T = 300 K.

---------------------------------------------------------------
Finished initializing positions and related parameters.
---------------------------------------------------------------


---------------------------------------------------------------
Started executing the commands in run.in.
---------------------------------------------------------------

Use the NEP4 potential with 2 atom types.
    type 0 (Te with Z = 52).
    type 1 (Pb with Z = 82).
    radial cutoff = 8 A.
    angular cutoff = 4 A.
    MN_radial = 73.
    enlarged MN_radial = 92.
    enlarged MN_angular = 10.
    n_max_radial = 4.
    n_max_angular = 4.
    basis_size_radial = 8.
    basis_size_angular = 8.
    l_max_3body = 4.
    l_max_4body = 2.
    l_max_5body = 0.
    ANN = 30-30-1.
    number of neural network parameters = 1921.
    number of descriptor parameters = 360.
    total number of parameters = 2281.
Initialized velocities with input T = 300 K.
Use NVT ensemble for this run.
    choose the Langevin method.
    initial temperature is 300 K.
    final temperature is 300 K.
    tau_T is 100 time_step.
Time step for this run is 1 fs.
Perform GCMC MCMD:
    after every 10 MD steps, do 200 MC trials.
    with an initial temperature of 300 K and a final temperature of 300 K.
    number of species involved in GCMC = 1.
        species = Pb, mu = -2 eV
    maximum displacement distance = 1 Angstrom.
    the initial system or specified group has:
        125 Pb atoms.
    Use the NEP4 potential with 2 atom types.
        type 0 (Te with Z = 52).
        type 1 (Pb with Z = 82).
        radial cutoff = 8 A.
        angular cutoff = 4 A.
        MN_radial = 73.
        MN_angular = 8.
        enlarged MN_radial = 92.
        enlarged MN_angular = 10.
        n_max_radial = 4.
        n_max_angular = 4.
        basis_size_radial = 8.
        basis_size_angular = 8.
        l_max_3body = 4.
        l_max_4body = 2.
        l_max_5body = 0.
        ANN = 30-30-1.
        number of neural network parameters = 1921.
        number of descriptor parameters = 360.
        total number of parameters = 2281.
  Species Pb: mass = 207.2 amu, lambda = 4.37053e+17 Å, zz = 3.01909e-87
GCMC ensemble initialized with 1 species
  Species Pb (type 1): mu = -2.0000 eV, zz = 3.01909e-87
Run 1000 steps.
GCMC: Running 200 MC steps at temperature 300 K
GCMC: Current number of atoms = 250
GCMC step 0: atoms=250, acceptance_rate=1.000
Deletion accepted: atom 218, ΔE=-0.002 eV
GCMC step 100: atoms=250, acceptance_rate=0.257
Deletion accepted: atom 128, ΔE=0.554 eV
Deletion accepted: atom 128, ΔE=2.641 eV
GCMC: MD step 10, acceptance ratio = 0.275
GCMC: Final number of atoms = 250
GCMC: Running 200 MC steps at temperature 300 K
GCMC: Current number of atoms = 250
GCMC step 0: atoms=250, acceptance_rate=0.274
Deletion accepted: atom 233, ΔE=-0.009 eV
Deletion accepted: atom 218, ΔE=-0.002 eV
Deletion accepted: atom 218, ΔE=-0.002 eV
Deletion accepted: atom 226, ΔE=-0.008 eV
Deletion accepted: atom 213, ΔE=-0.103 eV
Deletion accepted: atom 128, ΔE=2.641 eV
GCMC step 100: atoms=250, acceptance_rate=0.312
Deletion accepted: atom 219, ΔE=2.986 eV
Deletion accepted: atom 233, ΔE=-0.009 eV
Deletion accepted: atom 203, ΔE=-0.064 eV
GCMC: MD step 20, acceptance ratio = 0.2725
GCMC: Final number of atoms = 250
GCMC: Running 200 MC steps at temperature 300 K
GCMC: Current number of atoms = 250
GCMC step 0: atoms=250, acceptance_rate=0.272
Deletion accepted: atom 166, ΔE=-0.000 eV
Deletion accepted: atom 203, ΔE=-0.064 eV
Deletion accepted: atom 226, ΔE=-0.009 eV
Deletion accepted: atom 218, ΔE=-0.001 eV
Deletion accepted: atom 226, ΔE=-0.009 eV
Deletion accepted: atom 196, ΔE=-0.100 eV
Deletion accepted: atom 210, ΔE=1.390 eV
Deletion accepted: atom 226, ΔE=-0.009 eV
Deletion accepted: atom 128, ΔE=-0.343 eV
Deletion accepted: atom 166, ΔE=-0.000 eV
Deletion accepted: atom 234, ΔE=-0.538 eV
Deletion accepted: atom 199, ΔE=-0.138 eV
Deletion accepted: atom 231, ΔE=-0.017 eV
Deletion accepted: atom 238, ΔE=-0.107 eV
Deletion accepted: atom 221, ΔE=-0.104 eV
GCMC step 100: atoms=250, acceptance_rate=0.281
Deletion accepted: atom 210, ΔE=1.406 eV
Deletion accepted: atom 203, ΔE=-0.089 eV
Deletion accepted: atom 219, ΔE=0.623 eV
Deletion accepted: atom 213, ΔE=-0.104 eV
Deletion accepted: atom 183, ΔE=-0.139 eV
Deletion accepted: atom 165, ΔE=-0.423 eV
Deletion accepted: atom 171, ΔE=-0.109 eV
Deletion accepted: atom 246, ΔE=-0.082 eV
GCMC: MD step 30, acceptance ratio = 0.296667
GCMC: Final number of atoms = 250
GCMC: Running 200 MC steps at temperature 300 K
GCMC: Current number of atoms = 250
GCMC step 0: atoms=250, acceptance_rate=0.296
Deletion accepted: atom 199, ΔE=-0.228 eV
Deletion accepted: atom 158, ΔE=5.059 eV
Deletion accepted: atom 191, ΔE=-0.006 eV
Deletion accepted: atom 203, ΔE=-0.089 eV
Deletion accepted: atom 132, ΔE=-0.786 eV
Deletion accepted: atom 183, ΔE=-0.139 eV
Deletion accepted: atom 132, ΔE=-0.786 eV
Deletion accepted: atom 234, ΔE=-0.545 eV
Deletion accepted: atom 178, ΔE=-0.088 eV
Deletion accepted: atom 238, ΔE=-0.107 eV
Deletion accepted: atom 158, ΔE=5.059 eV
Deletion accepted: atom 221, ΔE=-0.105 eV
GCMC step 100: atoms=250, acceptance_rate=0.295
Deletion accepted: atom 171, ΔE=-0.109 eV
Deletion accepted: atom 238, ΔE=-0.107 eV
Deletion accepted: atom 185, ΔE=-0.081 eV
Deletion accepted: atom 185, ΔE=-0.081 eV
Deletion accepted: atom 155, ΔE=-0.073 eV
Deletion accepted: atom 237, ΔE=-0.406 eV
GCMC: MD step 40, acceptance ratio = 0.29375
GCMC: Final number of atoms = 250
GCMC: Running 200 MC steps at temperature 300 K
GCMC: Current number of atoms = 250
GCMC step 0: atoms=250, acceptance_rate=0.293
Deletion accepted: atom 237, ΔE=-0.388 eV
Deletion accepted: atom 220, ΔE=-0.211 eV
Deletion accepted: atom 185, ΔE=-0.081 eV
Deletion accepted: atom 171, ΔE=-0.109 eV
Deletion accepted: atom 237, ΔE=-0.388 eV
Deletion accepted: atom 140, ΔE=2.722 eV
Deletion accepted: atom 246, ΔE=-0.083 eV
Deletion accepted: atom 141, ΔE=-0.135 eV
Deletion accepted: atom 196, ΔE=-0.103 eV
Deletion accepted: atom 171, ΔE=-0.126 eV
GCMC step 100: atoms=250, acceptance_rate=0.294
Deletion accepted: atom 193, ΔE=-0.067 eV
Deletion accepted: atom 155, ΔE=-0.048 eV
Deletion accepted: atom 188, ΔE=0.839 eV
Deletion accepted: atom 238, ΔE=-0.107 eV
Deletion accepted: atom 165, ΔE=-0.424 eV
Deletion accepted: atom 225, ΔE=-0.098 eV
Deletion accepted: atom 141, ΔE=-0.044 eV
Deletion accepted: atom 238, ΔE=-0.107 eV
Deletion accepted: atom 132, ΔE=-0.369 eV
Deletion accepted: atom 240, ΔE=-0.276 eV
Deletion accepted: atom 231, ΔE=-0.110 eV
Deletion accepted: atom 135, ΔE=0.061 eV
Deletion accepted: atom 182, ΔE=-0.296 eV
Deletion accepted: atom 141, ΔE=-0.044 eV
Deletion accepted: atom 182, ΔE=-0.296 eV
GCMC: MD step 50, acceptance ratio = 0.297
GCMC: Final number of atoms = 250
GCMC: Running 200 MC steps at temperature 300 K
GCMC: Current number of atoms = 250
Deletion accepted: atom 203, ΔE=-0.088 eV
GCMC step 0: atoms=250, acceptance_rate=0.298
Deletion accepted: atom 186, ΔE=-0.174 eV
Deletion accepted: atom 226, ΔE=-0.058 eV
Deletion accepted: atom 174, ΔE=-0.186 eV
Deletion accepted: atom 165, ΔE=-0.424 eV
Deletion accepted: atom 238, ΔE=-0.107 eV
Deletion accepted: atom 166, ΔE=-0.000 eV
Deletion accepted: atom 201, ΔE=-0.066 eV
Deletion accepted: atom 236, ΔE=-0.093 eV
Deletion accepted: atom 236, ΔE=-0.093 eV
Deletion accepted: atom 193, ΔE=-0.067 eV
GCMC step 100: atoms=250, acceptance_rate=0.292
Deletion accepted: atom 188, ΔE=0.839 eV
Deletion accepted: atom 243, ΔE=-0.124 eV
Deletion accepted: atom 209, ΔE=-0.104 eV
Deletion accepted: atom 133, ΔE=-0.075 eV
Deletion accepted: atom 231, ΔE=-0.110 eV
Deletion accepted: atom 178, ΔE=-0.089 eV
Deletion accepted: atom 195, ΔE=-0.847 eV
Deletion accepted: atom 165, ΔE=-0.424 eV
Deletion accepted: atom 213, ΔE=-0.104 eV
GCMC: MD step 60, acceptance ratio = 0.291667
GCMC: Final number of atoms = 250
GCMC: Running 200 MC steps at temperature 300 K
GCMC: Current number of atoms = 250
GCMC step 0: atoms=250, acceptance_rate=0.291
Deletion accepted: atom 140, ΔE=2.913 eV
Deletion accepted: atom 236, ΔE=-0.093 eV
Deletion accepted: atom 240, ΔE=-0.194 eV
Deletion accepted: atom 225, ΔE=-0.103 eV
Deletion accepted: atom 166, ΔE=-0.000 eV
Deletion accepted: atom 128, ΔE=-0.344 eV
Deletion accepted: atom 209, ΔE=-0.106 eV
Deletion accepted: atom 171, ΔE=-0.125 eV
Deletion accepted: atom 230, ΔE=-0.145 eV
Deletion accepted: atom 196, ΔE=-0.103 eV
Deletion accepted: atom 135, ΔE=0.099 eV
Deletion accepted: atom 165, ΔE=-0.424 eV
Deletion accepted: atom 142, ΔE=-0.420 eV
Deletion accepted: atom 238, ΔE=-0.107 eV
Deletion accepted: atom 171, ΔE=-0.125 eV
Deletion accepted: atom 155, ΔE=-0.047 eV
Deletion accepted: atom 223, ΔE=-0.273 eV
Deletion accepted: atom 158, ΔE=-0.045 eV
Deletion accepted: atom 225, ΔE=-0.103 eV
Deletion accepted: atom 220, ΔE=-0.117 eV
Deletion accepted: atom 248, ΔE=-0.040 eV
Deletion accepted: atom 237, ΔE=-0.389 eV
GCMC step 100: atoms=250, acceptance_rate=0.301
Deletion accepted: atom 213, ΔE=-0.104 eV
Deletion accepted: atom 155, ΔE=-0.047 eV
Deletion accepted: atom 246, ΔE=-0.083 eV
Deletion accepted: atom 236, ΔE=-0.096 eV
Deletion accepted: atom 140, ΔE=2.924 eV
Deletion accepted: atom 182, ΔE=-0.278 eV
Deletion accepted: atom 140, ΔE=2.924 eV
Deletion accepted: atom 201, ΔE=-0.066 eV
Deletion accepted: atom 133, ΔE=-0.075 eV
Deletion accepted: atom 225, ΔE=-0.103 eV
Deletion accepted: atom 139, ΔE=-0.376 eV
Deletion accepted: atom 248, ΔE=-0.056 eV
Deletion accepted: atom 158, ΔE=-0.094 eV
Deletion accepted: atom 186, ΔE=-0.174 eV
Deletion accepted: atom 238, ΔE=-0.107 eV
GCMC: MD step 70, acceptance ratio = 0.302143
GCMC: Final number of atoms = 250
GCMC: Running 200 MC steps at temperature 300 K
GCMC: Current number of atoms = 250
GCMC step 0: atoms=250, acceptance_rate=0.302
Deletion accepted: atom 182, ΔE=-0.278 eV
Deletion accepted: atom 248, ΔE=-0.056 eV
Deletion accepted: atom 158, ΔE=-0.094 eV
Deletion accepted: atom 203, ΔE=-0.090 eV
Deletion accepted: atom 228, ΔE=-0.049 eV
Deletion accepted: atom 172, ΔE=2.295 eV
Deletion accepted: atom 202, ΔE=-0.481 eV
Deletion accepted: atom 202, ΔE=-0.481 eV
Deletion accepted: atom 139, ΔE=-0.409 eV
Deletion accepted: atom 155, ΔE=-0.047 eV
Deletion accepted: atom 227, ΔE=0.097 eV
Deletion accepted: atom 200, ΔE=-0.193 eV
Deletion accepted: atom 216, ΔE=-0.156 eV
Deletion accepted: atom 198, ΔE=4.092 eV
GCMC step 100: atoms=250, acceptance_rate=0.304
Deletion accepted: atom 205, ΔE=-0.638 eV
Deletion accepted: atom 174, ΔE=-0.191 eV
Deletion accepted: atom 240, ΔE=-0.193 eV
Deletion accepted: atom 164, ΔE=-0.496 eV
Deletion accepted: atom 185, ΔE=-0.074 eV
Deletion accepted: atom 183, ΔE=-0.157 eV
Deletion accepted: atom 228, ΔE=-0.049 eV
Deletion accepted: atom 230, ΔE=-0.145 eV
Deletion accepted: atom 195, ΔE=4.685 eV
Deletion accepted: atom 166, ΔE=-0.000 eV
Deletion accepted: atom 128, ΔE=-0.344 eV
Deletion accepted: atom 193, ΔE=-0.065 eV
Deletion accepted: atom 171, ΔE=-0.205 eV
Deletion accepted: atom 191, ΔE=-0.015 eV
GCMC: MD step 80, acceptance ratio = 0.303125
GCMC: Final number of atoms = 250
GCMC: Running 200 MC steps at temperature 300 K
GCMC: Current number of atoms = 250
GCMC step 0: atoms=250, acceptance_rate=0.303
Deletion accepted: atom 178, ΔE=-0.089 eV
Deletion accepted: atom 248, ΔE=-0.035 eV
Deletion accepted: atom 165, ΔE=-0.424 eV
Deletion accepted: atom 202, ΔE=-0.451 eV
Deletion accepted: atom 135, ΔE=0.195 eV
Deletion accepted: atom 199, ΔE=-0.130 eV
Deletion accepted: atom 139, ΔE=-0.486 eV
Deletion accepted: atom 241, ΔE=3.509 eV
Deletion accepted: atom 188, ΔE=0.839 eV
Deletion accepted: atom 205, ΔE=-0.638 eV
Deletion accepted: atom 206, ΔE=3.401 eV
Deletion accepted: atom 135, ΔE=0.195 eV
Deletion accepted: atom 128, ΔE=-0.344 eV
Deletion accepted: atom 191, ΔE=-0.015 eV
Deletion accepted: atom 196, ΔE=-0.112 eV
Deletion accepted: atom 136, ΔE=2.209 eV
Deletion accepted: atom 201, ΔE=-0.060 eV
Deletion accepted: atom 213, ΔE=-0.105 eV
Deletion accepted: atom 218, ΔE=-0.001 eV
Deletion accepted: atom 196, ΔE=-0.112 eV
Deletion accepted: atom 217, ΔE=0.115 eV
Deletion accepted: atom 153, ΔE=-0.289 eV
Deletion accepted: atom 231, ΔE=-0.118 eV
Deletion accepted: atom 228, ΔE=-0.049 eV
Deletion accepted: atom 172, ΔE=2.415 eV
Deletion accepted: atom 128, ΔE=-0.344 eV
Deletion accepted: atom 180, ΔE=-0.205 eV
Deletion accepted: atom 128, ΔE=-0.344 eV
GCMC step 100: atoms=250, acceptance_rate=0.312
Deletion accepted: atom 167, ΔE=-0.303 eV
Deletion accepted: atom 146, ΔE=-0.273 eV
Deletion accepted: atom 155, ΔE=-0.047 eV
Deletion accepted: atom 164, ΔE=2.671 eV
Deletion accepted: atom 167, ΔE=-0.303 eV
Deletion accepted: atom 246, ΔE=-0.097 eV
Deletion accepted: atom 228, ΔE=-0.049 eV
Deletion accepted: atom 227, ΔE=-0.202 eV
Deletion accepted: atom 196, ΔE=-0.112 eV
Deletion accepted: atom 167, ΔE=-0.303 eV
Deletion accepted: atom 133, ΔE=-0.058 eV
Deletion accepted: atom 219, ΔE=-0.549 eV
Deletion accepted: atom 136, ΔE=2.420 eV
Deletion accepted: atom 231, ΔE=-0.118 eV
Deletion accepted: atom 206, ΔE=3.433 eV
Deletion accepted: atom 165, ΔE=-0.424 eV
Deletion accepted: atom 168, ΔE=-0.110 eV
Deletion accepted: atom 188, ΔE=0.846 eV
Deletion accepted: atom 206, ΔE=3.433 eV
Deletion accepted: atom 186, ΔE=-0.173 eV
GCMC: MD step 90, acceptance ratio = 0.315556
GCMC: Final number of atoms = 250
GCMC: Running 200 MC steps at temperature 300 K
GCMC: Current number of atoms = 250
GCMC step 0: atoms=250, acceptance_rate=0.315
Deletion accepted: atom 211, ΔE=-0.076 eV
Deletion accepted: atom 235, ΔE=-0.514 eV
Deletion accepted: atom 233, ΔE=-0.071 eV
Deletion accepted: atom 209, ΔE=-0.128 eV
Deletion accepted: atom 163, ΔE=-0.101 eV
Deletion accepted: atom 172, ΔE=2.413 eV
Deletion accepted: atom 225, ΔE=-0.104 eV
Deletion accepted: atom 237, ΔE=-0.462 eV
Deletion accepted: atom 132, ΔE=-0.402 eV
Deletion accepted: atom 136, ΔE=3.467 eV
Deletion accepted: atom 183, ΔE=-0.157 eV
Deletion accepted: atom 236, ΔE=-0.124 eV
Deletion accepted: atom 153, ΔE=-0.289 eV
Deletion accepted: atom 211, ΔE=-0.076 eV
Deletion accepted: atom 226, ΔE=-0.015 eV
Deletion accepted: atom 205, ΔE=-0.275 eV
Deletion accepted: atom 203, ΔE=-0.090 eV
Deletion accepted: atom 206, ΔE=3.433 eV
Deletion accepted: atom 157, ΔE=-0.301 eV
Deletion accepted: atom 133, ΔE=-0.058 eV
GCMC step 100: atoms=250, acceptance_rate=0.317
Deletion accepted: atom 171, ΔE=-0.205 eV
Deletion accepted: atom 178, ΔE=-0.089 eV
Deletion accepted: atom 194, ΔE=3.539 eV
Deletion accepted: atom 168, ΔE=-0.111 eV
Deletion accepted: atom 164, ΔE=2.686 eV
Deletion accepted: atom 203, ΔE=-0.090 eV
Deletion accepted: atom 168, ΔE=-0.111 eV
Deletion accepted: atom 233, ΔE=-0.072 eV
Deletion accepted: atom 213, ΔE=-0.105 eV
Deletion accepted: atom 182, ΔE=0.553 eV
Deletion accepted: atom 181, ΔE=-0.163 eV
Deletion accepted: atom 230, ΔE=-0.181 eV
Deletion accepted: atom 139, ΔE=-0.347 eV
Deletion accepted: atom 168, ΔE=-0.111 eV
Deletion accepted: atom 173, ΔE=4.093 eV
Deletion accepted: atom 174, ΔE=-0.274 eV
Deletion accepted: atom 171, ΔE=-0.205 eV
Deletion accepted: atom 132, ΔE=-0.402 eV
Deletion accepted: atom 136, ΔE=3.473 eV
Deletion accepted: atom 225, ΔE=-0.104 eV
Deletion accepted: atom 132, ΔE=-0.400 eV
Deletion accepted: atom 209, ΔE=-0.128 eV
Deletion accepted: atom 218, ΔE=-0.001 eV
Deletion accepted: atom 211, ΔE=-0.076 eV
Deletion accepted: atom 153, ΔE=-0.290 eV
Deletion accepted: atom 206, ΔE=3.434 eV
Deletion accepted: atom 195, ΔE=4.827 eV
Deletion accepted: atom 157, ΔE=-0.301 eV
Deletion accepted: atom 243, ΔE=-0.115 eV
GCMC: MD step 100, acceptance ratio = 0.3225
GCMC: Final number of atoms = 250
    100 steps completed.
GCMC: Running 200 MC steps at temperature 300 K
GCMC: Current number of atoms = 250
GCMC step 0: atoms=250, acceptance_rate=0.322
Deletion accepted: atom 205, ΔE=-0.277 eV
Deletion accepted: atom 191, ΔE=-0.016 eV
Deletion accepted: atom 242, ΔE=-0.121 eV
Deletion accepted: atom 193, ΔE=-0.062 eV
Deletion accepted: atom 221, ΔE=-0.116 eV
Deletion accepted: atom 188, ΔE=-0.129 eV
Deletion accepted: atom 233, ΔE=-0.068 eV
Deletion accepted: atom 194, ΔE=3.532 eV
Deletion accepted: atom 220, ΔE=-0.119 eV
Deletion accepted: atom 146, ΔE=-0.302 eV
Deletion accepted: atom 142, ΔE=-0.214 eV
Deletion accepted: atom 201, ΔE=-0.055 eV
Deletion accepted: atom 202, ΔE=-0.432 eV
Deletion accepted: atom 146, ΔE=-0.302 eV
Deletion accepted: atom 151, ΔE=-0.562 eV
Deletion accepted: atom 201, ΔE=-0.055 eV
Deletion accepted: atom 213, ΔE=-0.105 eV
Deletion accepted: atom 167, ΔE=-0.270 eV
Deletion accepted: atom 175, ΔE=-0.112 eV
Deletion accepted: atom 134, ΔE=-0.282 eV
Deletion accepted: atom 167, ΔE=-0.270 eV
GCMC step 100: atoms=250, acceptance_rate=0.328
Deletion accepted: atom 153, ΔE=-0.290 eV
Deletion accepted: atom 205, ΔE=-0.162 eV
Deletion accepted: atom 246, ΔE=-0.097 eV
Deletion accepted: atom 128, ΔE=-0.317 eV
Deletion accepted: atom 127, ΔE=-0.308 eV
Deletion accepted: atom 200, ΔE=-0.193 eV
Deletion accepted: atom 133, ΔE=-0.059 eV
Deletion accepted: atom 230, ΔE=-0.181 eV
Deletion accepted: atom 180, ΔE=-0.292 eV
Deletion accepted: atom 147, ΔE=-0.227 eV
Deletion accepted: atom 180, ΔE=-0.292 eV
Deletion accepted: atom 158, ΔE=-0.118 eV
Deletion accepted: atom 128, ΔE=-0.317 eV
Deletion accepted: atom 143, ΔE=0.414 eV
Deletion accepted: atom 141, ΔE=-0.068 eV
Deletion accepted: atom 158, ΔE=-0.118 eV
Deletion accepted: atom 209, ΔE=-0.128 eV
Deletion accepted: atom 238, ΔE=-0.108 eV
Deletion accepted: atom 167, ΔE=-0.270 eV
Deletion accepted: atom 246, ΔE=-0.183 eV
Deletion accepted: atom 155, ΔE=-0.128 eV
Deletion accepted: atom 153, ΔE=-0.290 eV
Deletion accepted: atom 238, ΔE=-0.087 eV
Deletion accepted: atom 173, ΔE=4.093 eV
Deletion accepted: atom 216, ΔE=-0.186 eV
Deletion accepted: atom 157, ΔE=-0.241 eV
Deletion accepted: atom 203, ΔE=-0.090 eV
Deletion accepted: atom 209, ΔE=-0.128 eV
Deletion accepted: atom 174, ΔE=-0.274 eV
GCMC: MD step 110, acceptance ratio = 0.334091
GCMC: Final number of atoms = 250
GCMC: Running 200 MC steps at temperature 300 K
GCMC: Current number of atoms = 250
Deletion accepted: atom 133, ΔE=-0.059 eV
GCMC step 0: atoms=250, acceptance_rate=0.334
Deletion accepted: atom 172, ΔE=-0.152 eV
Deletion accepted: atom 230, ΔE=-0.181 eV
Deletion accepted: atom 147, ΔE=-0.219 eV
Deletion accepted: atom 248, ΔE=-0.059 eV
Deletion accepted: atom 227, ΔE=0.054 eV
Deletion accepted: atom 138, ΔE=-0.369 eV
Deletion accepted: atom 166, ΔE=-0.000 eV
Deletion accepted: atom 143, ΔE=0.414 eV
Deletion accepted: atom 207, ΔE=-0.197 eV
Deletion accepted: atom 168, ΔE=-0.137 eV
Deletion accepted: atom 243, ΔE=-0.115 eV
Deletion accepted: atom 240, ΔE=-0.409 eV
Deletion accepted: atom 196, ΔE=-0.112 eV
Deletion accepted: atom 232, ΔE=-0.060 eV
Deletion accepted: atom 227, ΔE=0.054 eV
Deletion accepted: atom 181, ΔE=-0.165 eV
Deletion accepted: atom 134, ΔE=0.059 eV
Deletion accepted: atom 218, ΔE=-0.001 eV
Deletion accepted: atom 199, ΔE=-0.127 eV
Deletion accepted: atom 165, ΔE=1.658 eV
Deletion accepted: atom 196, ΔE=-0.112 eV
Deletion accepted: atom 181, ΔE=-0.165 eV
GCMC step 100: atoms=250, acceptance_rate=0.334
Deletion accepted: atom 182, ΔE=0.606 eV
Deletion accepted: atom 163, ΔE=-0.102 eV
Deletion accepted: atom 127, ΔE=-0.310 eV
Deletion accepted: atom 206, ΔE=3.473 eV
Deletion accepted: atom 246, ΔE=-0.183 eV
Deletion accepted: atom 149, ΔE=-0.111 eV
Deletion accepted: atom 134, ΔE=0.059 eV
Deletion accepted: atom 216, ΔE=-0.227 eV
Deletion accepted: atom 130, ΔE=1.586 eV
Deletion accepted: atom 168, ΔE=-0.138 eV
Deletion accepted: atom 133, ΔE=-0.058 eV
Deletion accepted: atom 133, ΔE=-0.058 eV
Deletion accepted: atom 142, ΔE=-0.154 eV
Deletion accepted: atom 238, ΔE=-0.031 eV
GCMC: MD step 120, acceptance ratio = 0.332917
GCMC: Final number of atoms = 250
GCMC: Running 200 MC steps at temperature 300 K
GCMC: Current number of atoms = 250
GCMC step 0: atoms=250, acceptance_rate=0.333
Deletion accepted: atom 246, ΔE=-0.183 eV
Deletion accepted: atom 129, ΔE=-0.455 eV
Deletion accepted: atom 216, ΔE=-0.228 eV
Deletion accepted: atom 205, ΔE=-0.137 eV
Deletion accepted: atom 220, ΔE=-0.105 eV
Deletion accepted: atom 174, ΔE=-0.263 eV
Deletion accepted: atom 166, ΔE=-0.000 eV
Deletion accepted: atom 163, ΔE=-0.102 eV
Deletion accepted: atom 205, ΔE=-0.137 eV
Deletion accepted: atom 163, ΔE=-0.102 eV
Deletion accepted: atom 182, ΔE=0.422 eV
Deletion accepted: atom 211, ΔE=-0.057 eV
Deletion accepted: atom 155, ΔE=-0.128 eV
Deletion accepted: atom 245, ΔE=-0.123 eV
Deletion accepted: atom 155, ΔE=-0.128 eV
Deletion accepted: atom 142, ΔE=-0.160 eV
Deletion accepted: atom 178, ΔE=-0.089 eV
Deletion accepted: atom 142, ΔE=-0.160 eV
GCMC step 100: atoms=250, acceptance_rate=0.335
Deletion accepted: atom 224, ΔE=-0.514 eV
Deletion accepted: atom 209, ΔE=-0.192 eV
Deletion accepted: atom 141, ΔE=-0.059 eV
Deletion accepted: atom 237, ΔE=-0.352 eV
Deletion accepted: atom 185, ΔE=-0.203 eV
Deletion accepted: atom 248, ΔE=-0.063 eV
Deletion accepted: atom 235, ΔE=4.835 eV
Deletion accepted: atom 181, ΔE=-0.167 eV
Deletion accepted: atom 226, ΔE=-0.024 eV
Deletion accepted: atom 146, ΔE=-0.244 eV
Deletion accepted: atom 225, ΔE=-0.104 eV
Deletion accepted: atom 237, ΔE=-0.352 eV
Deletion accepted: atom 155, ΔE=-0.128 eV
Deletion accepted: atom 181, ΔE=-0.167 eV
Deletion accepted: atom 153, ΔE=-0.271 eV
Deletion accepted: atom 209, ΔE=-0.192 eV
Deletion accepted: atom 206, ΔE=3.473 eV
Deletion accepted: atom 201, ΔE=-0.015 eV
Deletion accepted: atom 139, ΔE=-0.315 eV
Deletion accepted: atom 207, ΔE=-0.244 eV
Deletion accepted: atom 241, ΔE=3.456 eV
Deletion accepted: atom 213, ΔE=-0.018 eV
Deletion accepted: atom 149, ΔE=-0.081 eV
Deletion accepted: atom 127, ΔE=-0.334 eV
Deletion accepted: atom 153, ΔE=-0.271 eV
Deletion accepted: atom 232, ΔE=-0.059 eV
Deletion accepted: atom 237, ΔE=-0.351 eV
GCMC: MD step 130, acceptance ratio = 0.339231
GCMC: Final number of atoms = 250
GCMC: Running 200 MC steps at temperature 300 K
GCMC: Current number of atoms = 250
GCMC step 0: atoms=250, acceptance_rate=0.339
Deletion accepted: atom 211, ΔE=-0.057 eV
Deletion accepted: atom 127, ΔE=-0.334 eV
Deletion accepted: atom 188, ΔE=-0.129 eV
Deletion accepted: atom 209, ΔE=-0.192 eV
Deletion accepted: atom 127, ΔE=-0.338 eV
Deletion accepted: atom 246, ΔE=-0.183 eV
Deletion accepted: atom 198, ΔE=-0.017 eV
Deletion accepted: atom 172, ΔE=-0.089 eV
Deletion accepted: atom 211, ΔE=-0.057 eV
Deletion accepted: atom 163, ΔE=-0.102 eV
Deletion accepted: atom 229, ΔE=-0.150 eV
Deletion accepted: atom 242, ΔE=-0.140 eV
Deletion accepted: atom 237, ΔE=-0.351 eV
Deletion accepted: atom 126, ΔE=-0.286 eV
Deletion accepted: atom 225, ΔE=-0.104 eV
Deletion accepted: atom 210, ΔE=3.028 eV
Deletion accepted: atom 135, ΔE=0.024 eV
Deletion accepted: atom 150, ΔE=-0.237 eV
Deletion accepted: atom 146, ΔE=-0.241 eV
GCMC step 100: atoms=250, acceptance_rate=0.338
Deletion accepted: atom 159, ΔE=-0.132 eV
Deletion accepted: atom 213, ΔE=-0.017 eV
Deletion accepted: atom 196, ΔE=-0.111 eV
Deletion accepted: atom 201, ΔE=-0.014 eV
Deletion accepted: atom 150, ΔE=-0.231 eV
Deletion accepted: atom 230, ΔE=-0.181 eV
Deletion accepted: atom 153, ΔE=-0.271 eV
Deletion accepted: atom 221, ΔE=-0.119 eV
Deletion accepted: atom 242, ΔE=-0.140 eV
Deletion accepted: atom 191, ΔE=-0.017 eV
Deletion accepted: atom 128, ΔE=-0.211 eV
Deletion accepted: atom 153, ΔE=-0.271 eV
Deletion accepted: atom 186, ΔE=-0.177 eV
Deletion accepted: atom 212, ΔE=2.124 eV
Deletion accepted: atom 128, ΔE=-0.211 eV
Deletion accepted: atom 209, ΔE=-0.192 eV
Deletion accepted: atom 226, ΔE=-0.030 eV
Deletion accepted: atom 176, ΔE=-0.137 eV
Deletion accepted: atom 206, ΔE=3.457 eV
Deletion accepted: atom 238, ΔE=-0.079 eV
Deletion accepted: atom 248, ΔE=-0.063 eV
Deletion accepted: atom 149, ΔE=-0.084 eV
Deletion accepted: atom 186, ΔE=-0.177 eV
Deletion accepted: atom 171, ΔE=-0.203 eV
GCMC: MD step 140, acceptance ratio = 0.339643
GCMC: Final number of atoms = 250
GCMC: Running 200 MC steps at temperature 300 K
GCMC: Current number of atoms = 250
GCMC step 0: atoms=250, acceptance_rate=0.340
Deletion accepted: atom 139, ΔE=-0.238 eV
Deletion accepted: atom 181, ΔE=-0.171 eV
Deletion accepted: atom 157, ΔE=-0.234 eV
Deletion accepted: atom 199, ΔE=-0.139 eV
Deletion accepted: atom 196, ΔE=-0.111 eV
Deletion accepted: atom 199, ΔE=-0.139 eV
Deletion accepted: atom 188, ΔE=-0.129 eV
Deletion accepted: atom 221, ΔE=-0.119 eV
Deletion accepted: atom 126, ΔE=-0.259 eV
Deletion accepted: atom 232, ΔE=-0.106 eV
Deletion accepted: atom 170, ΔE=-0.465 eV
Deletion accepted: atom 201, ΔE=-0.048 eV
Deletion accepted: atom 133, ΔE=-0.058 eV
Deletion accepted: atom 211, ΔE=-0.082 eV
Deletion accepted: atom 146, ΔE=-0.234 eV
Deletion accepted: atom 142, ΔE=-0.152 eV
Deletion accepted: atom 217, ΔE=-0.249 eV
Deletion accepted: atom 193, ΔE=-0.017 eV
Deletion accepted: atom 159, ΔE=-0.132 eV
Deletion accepted: atom 196, ΔE=-0.111 eV
Deletion accepted: atom 212, ΔE=2.121 eV
Deletion accepted: atom 232, ΔE=-0.106 eV
Deletion accepted: atom 180, ΔE=-0.313 eV
Deletion accepted: atom 126, ΔE=-0.259 eV
Deletion accepted: atom 248, ΔE=-0.085 eV
Deletion accepted: atom 195, ΔE=0.874 eV
Deletion accepted: atom 244, ΔE=4.954 eV
GCMC step 100: atoms=250, acceptance_rate=0.341
Deletion accepted: atom 149, ΔE=-0.084 eV
Deletion accepted: atom 204, ΔE=-0.262 eV
Deletion accepted: atom 207, ΔE=-0.244 eV
Deletion accepted: atom 210, ΔE=3.028 eV
Deletion accepted: atom 128, ΔE=-0.233 eV
Deletion accepted: atom 126, ΔE=-0.259 eV
Deletion accepted: atom 222, ΔE=1.392 eV
Deletion accepted: atom 158, ΔE=-0.176 eV
Deletion accepted: atom 168, ΔE=-0.090 eV
Deletion accepted: atom 140, ΔE=-0.220 eV
Deletion accepted: atom 180, ΔE=-0.310 eV
Deletion accepted: atom 246, ΔE=-0.183 eV
Deletion accepted: atom 209, ΔE=-0.231 eV
Deletion accepted: atom 157, ΔE=-0.234 eV
Deletion accepted: atom 210, ΔE=3.028 eV
Deletion accepted: atom 222, ΔE=1.392 eV
Deletion accepted: atom 129, ΔE=-0.459 eV
Deletion accepted: atom 235, ΔE=4.835 eV
Deletion accepted: atom 181, ΔE=-0.213 eV
Deletion accepted: atom 245, ΔE=-0.119 eV
Deletion accepted: atom 157, ΔE=-0.234 eV
Deletion accepted: atom 159, ΔE=-0.132 eV
Deletion accepted: atom 181, ΔE=-0.213 eV
Deletion accepted: atom 205, ΔE=-0.317 eV
Deletion accepted: atom 194, ΔE=-0.418 eV
Deletion accepted: atom 193, ΔE=-0.017 eV
Deletion accepted: atom 126, ΔE=-0.259 eV
Deletion accepted: atom 207, ΔE=-0.244 eV
Deletion accepted: atom 166, ΔE=-0.000 eV
Deletion accepted: atom 138, ΔE=-0.333 eV
Deletion accepted: atom 207, ΔE=-0.244 eV
Deletion accepted: atom 194, ΔE=-0.418 eV
GCMC: MD step 150, acceptance ratio = 0.343333
GCMC: Final number of atoms = 250
GCMC: Running 200 MC steps at temperature 300 K
GCMC: Current number of atoms = 250
GCMC step 0: atoms=250, acceptance_rate=0.343
Deletion accepted: atom 217, ΔE=-0.249 eV
Deletion accepted: atom 179, ΔE=1.336 eV
Deletion accepted: atom 183, ΔE=-0.143 eV
Deletion accepted: atom 130, ΔE=-0.065 eV
Deletion accepted: atom 139, ΔE=-0.300 eV
Deletion accepted: atom 149, ΔE=-0.085 eV
Deletion accepted: atom 140, ΔE=-0.337 eV
Deletion accepted: atom 171, ΔE=-0.203 eV
Deletion accepted: atom 176, ΔE=-0.135 eV
Deletion accepted: atom 146, ΔE=-0.249 eV
Deletion accepted: atom 178, ΔE=-0.089 eV
Deletion accepted: atom 153, ΔE=-0.214 eV
Deletion accepted: atom 231, ΔE=-0.252 eV
Deletion accepted: atom 190, ΔE=-0.184 eV
Deletion accepted: atom 200, ΔE=-0.200 eV
Deletion accepted: atom 202, ΔE=-0.261 eV
Deletion accepted: atom 150, ΔE=-0.250 eV
Deletion accepted: atom 183, ΔE=-0.143 eV
Deletion accepted: atom 236, ΔE=-0.133 eV
Deletion accepted: atom 166, ΔE=-0.000 eV
GCMC step 100: atoms=250, acceptance_rate=0.342
Deletion accepted: atom 151, ΔE=-0.166 eV
Deletion accepted: atom 191, ΔE=-0.017 eV
Deletion accepted: atom 147, ΔE=-0.211 eV
Deletion accepted: atom 242, ΔE=-0.134 eV
Deletion accepted: atom 153, ΔE=-0.214 eV
Deletion accepted: atom 220, ΔE=-0.143 eV
Deletion accepted: atom 234, ΔE=-0.229 eV
Deletion accepted: atom 237, ΔE=-0.396 eV
Deletion accepted: atom 193, ΔE=-0.005 eV
Deletion accepted: atom 142, ΔE=-0.184 eV
Deletion accepted: atom 150, ΔE=-0.250 eV
Deletion accepted: atom 176, ΔE=-0.135 eV
Deletion accepted: atom 132, ΔE=3.122 eV
Deletion accepted: atom 182, ΔE=1.641 eV
Deletion accepted: atom 127, ΔE=-0.315 eV
Deletion accepted: atom 133, ΔE=-0.060 eV
Deletion accepted: atom 146, ΔE=-0.249 eV
Deletion accepted: atom 167, ΔE=-0.330 eV
Deletion accepted: atom 150, ΔE=-0.283 eV
Deletion accepted: atom 142, ΔE=-0.184 eV
Deletion accepted: atom 243, ΔE=-0.108 eV
Deletion accepted: atom 167, ΔE=-0.327 eV
Deletion accepted: atom 157, ΔE=-0.071 eV
Deletion accepted: atom 228, ΔE=-0.045 eV
Deletion accepted: atom 192, ΔE=-0.379 eV
Deletion accepted: atom 172, ΔE=-0.248 eV
Deletion accepted: atom 195, ΔE=0.608 eV
Deletion accepted: atom 152, ΔE=-0.180 eV
Deletion accepted: atom 152, ΔE=-0.180 eV
GCMC: MD step 160, acceptance ratio = 0.344375
GCMC: Final number of atoms = 250
GCMC: Running 200 MC steps at temperature 300 K
GCMC: Current number of atoms = 250
GCMC step 0: atoms=250, acceptance_rate=0.345
Deletion accepted: atom 175, ΔE=-0.218 eV
Deletion accepted: atom 242, ΔE=-0.134 eV
Deletion accepted: atom 200, ΔE=-0.200 eV
Deletion accepted: atom 155, ΔE=-0.128 eV
Deletion accepted: atom 138, ΔE=-0.351 eV
Deletion accepted: atom 135, ΔE=-0.352 eV
Deletion accepted: atom 245, ΔE=-0.118 eV
Deletion accepted: atom 126, ΔE=1.088 eV
Deletion accepted: atom 157, ΔE=-0.071 eV
Deletion accepted: atom 168, ΔE=-0.052 eV
Deletion accepted: atom 155, ΔE=-0.128 eV
Deletion accepted: atom 138, ΔE=-0.351 eV
Deletion accepted: atom 230, ΔE=-0.181 eV
Deletion accepted: atom 172, ΔE=-0.248 eV
Deletion accepted: atom 152, ΔE=-0.180 eV
Deletion accepted: atom 246, ΔE=-0.183 eV
Deletion accepted: atom 249, ΔE=-0.319 eV
Deletion accepted: atom 129, ΔE=-0.403 eV
Deletion accepted: atom 198, ΔE=-0.023 eV
Deletion accepted: atom 183, ΔE=-0.143 eV
Deletion accepted: atom 238, ΔE=-0.091 eV
Deletion accepted: atom 142, ΔE=-0.233 eV
Deletion accepted: atom 205, ΔE=-0.393 eV
Deletion accepted: atom 231, ΔE=-0.303 eV
Deletion accepted: atom 192, ΔE=-0.379 eV
Deletion accepted: atom 194, ΔE=-0.422 eV
Deletion accepted: atom 221, ΔE=-0.119 eV
Deletion accepted: atom 128, ΔE=-0.253 eV
Deletion accepted: atom 134, ΔE=0.055 eV
Deletion accepted: atom 224, ΔE=-0.551 eV
Deletion accepted: atom 171, ΔE=-0.203 eV
Deletion accepted: atom 186, ΔE=-0.177 eV
Deletion accepted: atom 127, ΔE=-0.315 eV
Deletion accepted: atom 162, ΔE=1.764 eV
Deletion accepted: atom 153, ΔE=-0.214 eV
Deletion accepted: atom 243, ΔE=-0.108 eV
GCMC step 100: atoms=250, acceptance_rate=0.347
Deletion accepted: atom 175, ΔE=-0.218 eV
Deletion accepted: atom 158, ΔE=-0.205 eV
Deletion accepted: atom 248, ΔE=-0.164 eV
Deletion accepted: atom 130, ΔE=-0.065 eV
Deletion accepted: atom 231, ΔE=-0.303 eV
Deletion accepted: atom 155, ΔE=-0.128 eV
Deletion accepted: atom 125, ΔE=0.452 eV
Deletion accepted: atom 205, ΔE=-0.185 eV
Deletion accepted: atom 235, ΔE=0.586 eV
Deletion accepted: atom 213, ΔE=-0.096 eV
Deletion accepted: atom 235, ΔE=0.586 eV
Deletion accepted: atom 177, ΔE=4.499 eV
Deletion accepted: atom 232, ΔE=-0.147 eV
Deletion accepted: atom 139, ΔE=-0.368 eV
Deletion accepted: atom 224, ΔE=-0.551 eV
Deletion accepted: atom 210, ΔE=2.236 eV
Deletion accepted: atom 212, ΔE=2.073 eV
Deletion accepted: atom 152, ΔE=-0.184 eV
Deletion accepted: atom 137, ΔE=-0.360 eV
Deletion accepted: atom 191, ΔE=-0.069 eV
Deletion accepted: atom 125, ΔE=0.459 eV
Deletion accepted: atom 145, ΔE=-0.302 eV
Deletion accepted: atom 227, ΔE=-0.196 eV
GCMC: MD step 170, acceptance ratio = 0.347353
GCMC: Final number of atoms = 250
GCMC: Running 200 MC steps at temperature 300 K
GCMC: Current number of atoms = 250
GCMC step 0: atoms=250, acceptance_rate=0.347
Deletion accepted: atom 162, ΔE=1.821 eV
Deletion accepted: atom 245, ΔE=-0.167 eV
Deletion accepted: atom 132, ΔE=-0.319 eV
Deletion accepted: atom 216, ΔE=-0.042 eV
Deletion accepted: atom 221, ΔE=-0.119 eV
Deletion accepted: atom 168, ΔE=-0.052 eV
Deletion accepted: atom 159, ΔE=-0.341 eV
Deletion accepted: atom 165, ΔE=1.795 eV
Deletion accepted: atom 213, ΔE=-0.096 eV
Deletion accepted: atom 192, ΔE=-0.379 eV
Deletion accepted: atom 247, ΔE=-0.213 eV
Deletion accepted: atom 231, ΔE=-0.156 eV
Deletion accepted: atom 219, ΔE=-0.362 eV
Deletion accepted: atom 147, ΔE=-0.301 eV
Deletion accepted: atom 166, ΔE=-0.000 eV
Deletion accepted: atom 173, ΔE=-0.020 eV
Deletion accepted: atom 228, ΔE=-0.045 eV
Deletion accepted: atom 175, ΔE=-0.218 eV
Deletion accepted: atom 236, ΔE=-0.126 eV
Deletion accepted: atom 229, ΔE=-0.207 eV
Deletion accepted: atom 242, ΔE=-0.134 eV
Deletion accepted: atom 152, ΔE=-0.184 eV
Deletion accepted: atom 201, ΔE=-0.047 eV
Deletion accepted: atom 193, ΔE=-0.044 eV
Deletion accepted: atom 248, ΔE=-0.164 eV
Deletion accepted: atom 224, ΔE=-0.549 eV
Deletion accepted: atom 202, ΔE=-0.306 eV
Deletion accepted: atom 181, ΔE=-0.188 eV
Deletion accepted: atom 150, ΔE=-0.313 eV
Deletion accepted: atom 128, ΔE=0.118 eV
GCMC step 100: atoms=250, acceptance_rate=0.347
Deletion accepted: atom 150, ΔE=-0.304 eV
Deletion accepted: atom 217, ΔE=-0.249 eV
Deletion accepted: atom 142, ΔE=-0.233 eV
Deletion accepted: atom 185, ΔE=-0.195 eV
Deletion accepted: atom 214, ΔE=0.535 eV
Deletion accepted: atom 205, ΔE=-0.202 eV
Deletion accepted: atom 217, ΔE=-0.249 eV
Deletion accepted: atom 249, ΔE=-0.318 eV
Deletion accepted: atom 168, ΔE=-0.052 eV
Deletion accepted: atom 186, ΔE=-0.177 eV
Deletion accepted: atom 185, ΔE=-0.195 eV
Deletion accepted: atom 232, ΔE=-0.147 eV
Deletion accepted: atom 151, ΔE=-0.160 eV
Deletion accepted: atom 230, ΔE=-0.145 eV
Deletion accepted: atom 165, ΔE=-0.307 eV
Deletion accepted: atom 157, ΔE=-0.169 eV
Deletion accepted: atom 244, ΔE=5.049 eV
Deletion accepted: atom 193, ΔE=-0.044 eV
Deletion accepted: atom 181, ΔE=-0.188 eV
Deletion accepted: atom 242, ΔE=-0.134 eV
Deletion accepted: atom 149, ΔE=-0.091 eV
Deletion accepted: atom 157, ΔE=-0.169 eV
Deletion accepted: atom 182, ΔE=3.270 eV
Deletion accepted: atom 177, ΔE=4.105 eV
Deletion accepted: atom 195, ΔE=0.827 eV
Deletion accepted: atom 229, ΔE=-0.255 eV
Deletion accepted: atom 179, ΔE=-0.148 eV
Deletion accepted: atom 182, ΔE=3.270 eV
Deletion accepted: atom 209, ΔE=-0.232 eV
Deletion accepted: atom 196, ΔE=-0.111 eV
Deletion accepted: atom 128, ΔE=0.118 eV
Deletion accepted: atom 129, ΔE=-0.403 eV
Deletion accepted: atom 164, ΔE=-0.068 eV
Deletion accepted: atom 220, ΔE=-0.143 eV
Deletion accepted: atom 147, ΔE=-0.242 eV
Deletion accepted: atom 235, ΔE=0.564 eV
GCMC: MD step 180, acceptance ratio = 0.351389
GCMC: Final number of atoms = 250
GCMC: Running 200 MC steps at temperature 300 K
GCMC: Current number of atoms = 250
GCMC step 0: atoms=250, acceptance_rate=0.351
Deletion accepted: atom 219, ΔE=-0.246 eV
Deletion accepted: atom 163, ΔE=-0.075 eV
Deletion accepted: atom 196, ΔE=-0.111 eV
Deletion accepted: atom 218, ΔE=-0.001 eV
Deletion accepted: atom 193, ΔE=-0.044 eV
Deletion accepted: atom 130, ΔE=-0.099 eV
Deletion accepted: atom 190, ΔE=-0.151 eV
Deletion accepted: atom 163, ΔE=-0.075 eV
Deletion accepted: atom 134, ΔE=0.057 eV
Deletion accepted: atom 222, ΔE=-0.237 eV
Deletion accepted: atom 137, ΔE=-0.360 eV
Deletion accepted: atom 167, ΔE=-0.314 eV
Deletion accepted: atom 178, ΔE=-0.092 eV
Deletion accepted: atom 178, ΔE=-0.092 eV
Deletion accepted: atom 177, ΔE=4.105 eV
Deletion accepted: atom 211, ΔE=-0.086 eV
Deletion accepted: atom 207, ΔE=-0.262 eV
Deletion accepted: atom 224, ΔE=-0.549 eV
Deletion accepted: atom 161, ΔE=-0.260 eV
Deletion accepted: atom 231, ΔE=-0.158 eV
Deletion accepted: atom 204, ΔE=-0.343 eV
Deletion accepted: atom 218, ΔE=-0.001 eV
Deletion accepted: atom 177, ΔE=4.105 eV
Deletion accepted: atom 188, ΔE=-0.129 eV
Deletion accepted: atom 234, ΔE=-0.152 eV
Deletion accepted: atom 163, ΔE=-0.075 eV
Deletion accepted: atom 193, ΔE=-0.044 eV
Deletion accepted: atom 179, ΔE=-0.163 eV
Deletion accepted: atom 234, ΔE=-0.152 eV
Deletion accepted: atom 161, ΔE=-0.260 eV
Deletion accepted: atom 156, ΔE=-0.152 eV
Deletion accepted: atom 130, ΔE=-0.100 eV
Deletion accepted: atom 129, ΔE=-0.403 eV
Deletion accepted: atom 188, ΔE=-0.129 eV
Deletion accepted: atom 213, ΔE=-0.109 eV
Deletion accepted: atom 216, ΔE=-0.042 eV
Deletion accepted: atom 226, ΔE=-0.222 eV
Deletion accepted: atom 147, ΔE=-0.242 eV
Deletion accepted: atom 234, ΔE=-0.152 eV
GCMC step 100: atoms=250, acceptance_rate=0.356
Deletion accepted: atom 140, ΔE=-0.340 eV
Deletion accepted: atom 184, ΔE=-0.192 eV
Deletion accepted: atom 193, ΔE=-0.103 eV
Deletion accepted: atom 125, ΔE=-0.044 eV
Deletion accepted: atom 181, ΔE=-0.213 eV
Deletion accepted: atom 230, ΔE=-0.145 eV
Deletion accepted: atom 182, ΔE=3.270 eV
Deletion accepted: atom 234, ΔE=-0.152 eV
Deletion accepted: atom 136, ΔE=-0.274 eV
Deletion accepted: atom 149, ΔE=-0.091 eV
Deletion accepted: atom 212, ΔE=-0.478 eV
Deletion accepted: atom 194, ΔE=-0.411 eV
Deletion accepted: atom 214, ΔE=0.620 eV
Deletion accepted: atom 227, ΔE=-0.196 eV
Deletion accepted: atom 125, ΔE=-0.045 eV
Deletion accepted: atom 199, ΔE=-0.140 eV
Deletion accepted: atom 202, ΔE=-0.297 eV
Deletion accepted: atom 236, ΔE=-0.176 eV
Deletion accepted: atom 149, ΔE=-0.091 eV
Deletion accepted: atom 130, ΔE=-0.105 eV
Deletion accepted: atom 246, ΔE=-0.190 eV
Deletion accepted: atom 140, ΔE=-0.340 eV
Deletion accepted: atom 174, ΔE=-0.261 eV
Deletion accepted: atom 207, ΔE=-0.262 eV
Deletion accepted: atom 143, ΔE=0.518 eV
Deletion accepted: atom 166, ΔE=-0.000 eV
Deletion accepted: atom 247, ΔE=-0.211 eV
Deletion accepted: atom 223, ΔE=-0.226 eV
Deletion accepted: atom 235, ΔE=0.564 eV
Deletion accepted: atom 158, ΔE=-0.235 eV
Deletion accepted: atom 215, ΔE=-0.220 eV
Deletion accepted: atom 185, ΔE=-0.195 eV
Deletion accepted: atom 182, ΔE=3.270 eV
Deletion accepted: atom 131, ΔE=0.851 eV
Deletion accepted: atom 145, ΔE=-0.298 eV
Deletion accepted: atom 246, ΔE=-0.190 eV
GCMC: MD step 190, acceptance ratio = 0.357632
GCMC: Final number of atoms = 250
GCMC: Running 200 MC steps at temperature 300 K
GCMC: Current number of atoms = 250
GCMC step 0: atoms=250, acceptance_rate=0.358
Deletion accepted: atom 202, ΔE=-0.297 eV
Deletion accepted: atom 196, ΔE=-0.079 eV
Deletion accepted: atom 164, ΔE=-0.214 eV
Deletion accepted: atom 231, ΔE=-0.157 eV
Deletion accepted: atom 231, ΔE=-0.157 eV
Deletion accepted: atom 206, ΔE=-0.298 eV
Deletion accepted: atom 195, ΔE=0.832 eV
Deletion accepted: atom 207, ΔE=-0.262 eV
Deletion accepted: atom 239, ΔE=-0.427 eV
Deletion accepted: atom 213, ΔE=-0.085 eV
Deletion accepted: atom 175, ΔE=-0.218 eV
Deletion accepted: atom 166, ΔE=-0.000 eV
Deletion accepted: atom 221, ΔE=-0.152 eV
Deletion accepted: atom 173, ΔE=-0.020 eV
Deletion accepted: atom 224, ΔE=-0.556 eV
Deletion accepted: atom 214, ΔE=0.537 eV
Deletion accepted: atom 216, ΔE=-0.042 eV
Deletion accepted: atom 185, ΔE=-0.201 eV
Deletion accepted: atom 194, ΔE=-0.341 eV
Deletion accepted: atom 165, ΔE=-0.298 eV
Deletion accepted: atom 163, ΔE=-0.075 eV
Deletion accepted: atom 173, ΔE=-0.020 eV
Deletion accepted: atom 192, ΔE=-0.339 eV
Deletion accepted: atom 212, ΔE=-0.478 eV
Deletion accepted: atom 215, ΔE=-0.213 eV
Deletion accepted: atom 135, ΔE=-0.336 eV
Deletion accepted: atom 141, ΔE=-0.073 eV
Deletion accepted: atom 215, ΔE=-0.213 eV
Deletion accepted: atom 175, ΔE=-0.218 eV
Deletion accepted: atom 152, ΔE=-0.550 eV
Deletion accepted: atom 220, ΔE=-0.143 eV
Deletion accepted: atom 223, ΔE=-0.226 eV
Deletion accepted: atom 150, ΔE=-0.308 eV
Deletion accepted: atom 146, ΔE=-0.285 eV
Deletion accepted: atom 225, ΔE=-0.099 eV
Deletion accepted: atom 139, ΔE=-0.401 eV
Deletion accepted: atom 146, ΔE=-0.285 eV
Deletion accepted: atom 245, ΔE=-0.287 eV
Deletion accepted: atom 222, ΔE=-0.238 eV
Deletion accepted: atom 170, ΔE=-0.659 eV
Deletion accepted: atom 248, ΔE=-0.234 eV
GCMC step 100: atoms=250, acceptance_rate=0.361
Deletion accepted: atom 204, ΔE=-0.337 eV
Deletion accepted: atom 223, ΔE=-0.225 eV
Deletion accepted: atom 175, ΔE=-0.218 eV
Deletion accepted: atom 238, ΔE=-0.109 eV
Deletion accepted: atom 152, ΔE=-0.550 eV
Deletion accepted: atom 143, ΔE=0.518 eV
Deletion accepted: atom 160, ΔE=-0.164 eV
Deletion accepted: atom 149, ΔE=-0.091 eV
Deletion accepted: atom 236, ΔE=-0.187 eV
Deletion accepted: atom 237, ΔE=-0.402 eV
Deletion accepted: atom 207, ΔE=-0.262 eV
Deletion accepted: atom 156, ΔE=-0.255 eV
Deletion accepted: atom 235, ΔE=0.564 eV
Deletion accepted: atom 157, ΔE=-0.173 eV
Deletion accepted: atom 164, ΔE=-0.214 eV
Deletion accepted: atom 231, ΔE=-0.157 eV
Deletion accepted: atom 168, ΔE=-0.096 eV
Deletion accepted: atom 200, ΔE=-0.257 eV
Deletion accepted: atom 152, ΔE=-0.550 eV
Deletion accepted: atom 185, ΔE=-0.201 eV
Deletion accepted: atom 141, ΔE=-0.073 eV
Deletion accepted: atom 126, ΔE=1.088 eV
Deletion accepted: atom 248, ΔE=-0.235 eV
Deletion accepted: atom 207, ΔE=-0.262 eV
Deletion accepted: atom 144, ΔE=-0.254 eV
Deletion accepted: atom 140, ΔE=-0.401 eV
Deletion accepted: atom 222, ΔE=-0.238 eV
GCMC: MD step 200, acceptance ratio = 0.3605
GCMC: Final number of atoms = 250
    200 steps completed.
GCMC: Running 200 MC steps at temperature 300 K
GCMC: Current number of atoms = 250
GCMC step 0: atoms=250, acceptance_rate=0.360
Deletion accepted: atom 179, ΔE=-0.332 eV
Deletion accepted: atom 160, ΔE=-0.164 eV
Deletion accepted: atom 224, ΔE=-0.553 eV
Deletion accepted: atom 162, ΔE=-0.176 eV
Deletion accepted: atom 176, ΔE=-0.152 eV
Deletion accepted: atom 226, ΔE=-0.224 eV
Deletion accepted: atom 179, ΔE=-0.332 eV
Deletion accepted: atom 231, ΔE=-0.155 eV
Deletion accepted: atom 128, ΔE=-0.288 eV
Deletion accepted: atom 143, ΔE=0.517 eV
Deletion accepted: atom 162, ΔE=-0.176 eV
Deletion accepted: atom 167, ΔE=-0.316 eV
Deletion accepted: atom 129, ΔE=-0.428 eV
Deletion accepted: atom 186, ΔE=-0.204 eV
Deletion accepted: atom 157, ΔE=-0.173 eV
Deletion accepted: atom 149, ΔE=-0.091 eV
Deletion accepted: atom 186, ΔE=-0.204 eV
Deletion accepted: atom 228, ΔE=-0.100 eV
Deletion accepted: atom 218, ΔE=-0.001 eV
Deletion accepted: atom 125, ΔE=-0.296 eV
Deletion accepted: atom 136, ΔE=-0.482 eV
Deletion accepted: atom 140, ΔE=-0.401 eV
Deletion accepted: atom 209, ΔE=-0.232 eV
Deletion accepted: atom 151, ΔE=-0.096 eV
Deletion accepted: atom 224, ΔE=-0.553 eV
Deletion accepted: atom 242, ΔE=-0.143 eV
Deletion accepted: atom 238, ΔE=-0.160 eV
Deletion accepted: atom 239, ΔE=-0.424 eV
Deletion accepted: atom 150, ΔE=-0.308 eV
Deletion accepted: atom 231, ΔE=-0.155 eV
Deletion accepted: atom 179, ΔE=-0.332 eV
Deletion accepted: atom 230, ΔE=-0.142 eV
Deletion accepted: atom 164, ΔE=-0.213 eV
Deletion accepted: atom 148, ΔE=-0.063 eV
Deletion accepted: atom 219, ΔE=-0.241 eV
Deletion accepted: atom 205, ΔE=-0.271 eV
Deletion accepted: atom 136, ΔE=-0.482 eV
Deletion accepted: atom 188, ΔE=-0.129 eV
Deletion accepted: atom 127, ΔE=-0.353 eV
Deletion accepted: atom 185, ΔE=-0.204 eV
Deletion accepted: atom 207, ΔE=-0.246 eV
Deletion accepted: atom 237, ΔE=-0.402 eV
Deletion accepted: atom 176, ΔE=-0.152 eV
Deletion accepted: atom 191, ΔE=-0.082 eV
Deletion accepted: atom 205, ΔE=-0.271 eV
GCMC step 100: atoms=250, acceptance_rate=0.365
Deletion accepted: atom 202, ΔE=-0.256 eV
Deletion accepted: atom 137, ΔE=-0.448 eV
Deletion accepted: atom 185, ΔE=-0.204 eV
Deletion accepted: atom 207, ΔE=-0.246 eV
Deletion accepted: atom 220, ΔE=-0.143 eV
Deletion accepted: atom 167, ΔE=-0.316 eV
Deletion accepted: atom 161, ΔE=-0.250 eV
Deletion accepted: atom 137, ΔE=-0.448 eV
Deletion accepted: atom 126, ΔE=1.088 eV
Deletion accepted: atom 174, ΔE=-0.261 eV
Deletion accepted: atom 188, ΔE=-0.129 eV
Deletion accepted: atom 198, ΔE=-0.034 eV
Deletion accepted: atom 183, ΔE=-0.056 eV
Deletion accepted: atom 247, ΔE=-0.202 eV
Deletion accepted: atom 168, ΔE=-0.100 eV
Deletion accepted: atom 227, ΔE=-0.212 eV
Deletion accepted: atom 216, ΔE=-0.022 eV
Deletion accepted: atom 152, ΔE=-0.550 eV
Deletion accepted: atom 156, ΔE=-0.255 eV
Deletion accepted: atom 215, ΔE=-0.213 eV
Deletion accepted: atom 125, ΔE=-0.336 eV
Deletion accepted: atom 157, ΔE=-0.173 eV
Deletion accepted: atom 126, ΔE=1.088 eV
Deletion accepted: atom 234, ΔE=-0.153 eV
Deletion accepted: atom 143, ΔE=0.520 eV
Deletion accepted: atom 135, ΔE=-0.337 eV
Deletion accepted: atom 210, ΔE=2.225 eV
Deletion accepted: atom 143, ΔE=0.520 eV
Deletion accepted: atom 180, ΔE=-0.249 eV
Deletion accepted: atom 211, ΔE=-0.089 eV
Deletion accepted: atom 151, ΔE=-0.096 eV
Deletion accepted: atom 198, ΔE=-0.022 eV
Deletion accepted: atom 238, ΔE=-0.160 eV
Deletion accepted: atom 174, ΔE=-0.261 eV
Deletion accepted: atom 139, ΔE=-0.404 eV
Deletion accepted: atom 131, ΔE=-0.215 eV
GCMC: MD step 210, acceptance ratio = 0.366667
GCMC: Final number of atoms = 250
GCMC: Running 200 MC steps at temperature 300 K
GCMC: Current number of atoms = 250
Deletion accepted: atom 150, ΔE=-0.308 eV
GCMC step 0: atoms=250, acceptance_rate=0.367
Deletion accepted: atom 241, ΔE=-0.115 eV
Deletion accepted: atom 166, ΔE=-0.000 eV
Deletion accepted: atom 184, ΔE=-0.191 eV
Deletion accepted: atom 216, ΔE=-0.022 eV
Deletion accepted: atom 152, ΔE=-0.549 eV
Deletion accepted: atom 141, ΔE=-0.084 eV
Deletion accepted: atom 191, ΔE=-0.084 eV
Deletion accepted: atom 205, ΔE=-0.271 eV
Deletion accepted: atom 144, ΔE=-0.238 eV
Deletion accepted: atom 222, ΔE=-0.236 eV
Deletion accepted: atom 138, ΔE=0.458 eV
Deletion accepted: atom 151, ΔE=-0.096 eV
Deletion accepted: atom 190, ΔE=-0.189 eV
Deletion accepted: atom 190, ΔE=-0.189 eV
Deletion accepted: atom 186, ΔE=-0.204 eV
Deletion accepted: atom 178, ΔE=-0.090 eV
Deletion accepted: atom 164, ΔE=-0.170 eV
Deletion accepted: atom 207, ΔE=-0.246 eV
Deletion accepted: atom 211, ΔE=-0.089 eV
Deletion accepted: atom 143, ΔE=0.522 eV
Deletion accepted: atom 203, ΔE=-0.090 eV
Deletion accepted: atom 195, ΔE=0.848 eV
Deletion accepted: atom 243, ΔE=-0.096 eV
Deletion accepted: atom 228, ΔE=-0.107 eV
Deletion accepted: atom 145, ΔE=-0.299 eV
Deletion accepted: atom 239, ΔE=-0.452 eV
Deletion accepted: atom 170, ΔE=-0.560 eV
Deletion accepted: atom 201, ΔE=-0.053 eV
Deletion accepted: atom 146, ΔE=-0.269 eV
Deletion accepted: atom 160, ΔE=-0.165 eV
Deletion accepted: atom 241, ΔE=-0.115 eV
Deletion accepted: atom 164, ΔE=-0.170 eV
Deletion accepted: atom 177, ΔE=4.138 eV
Deletion accepted: atom 219, ΔE=-0.233 eV
Deletion accepted: atom 202, ΔE=-0.250 eV
GCMC step 100: atoms=250, acceptance_rate=0.369
Deletion accepted: atom 214, ΔE=0.400 eV
Deletion accepted: atom 232, ΔE=-0.085 eV
Deletion accepted: atom 163, ΔE=-0.062 eV
Deletion accepted: atom 135, ΔE=-0.336 eV
Deletion accepted: atom 176, ΔE=-0.129 eV
Deletion accepted: atom 154, ΔE=-0.124 eV
Deletion accepted: atom 138, ΔE=-0.260 eV
Deletion accepted: atom 146, ΔE=-0.267 eV
Deletion accepted: atom 182, ΔE=3.275 eV
Deletion accepted: atom 179, ΔE=-0.321 eV
Deletion accepted: atom 230, ΔE=-0.142 eV
Deletion accepted: atom 241, ΔE=-0.321 eV
Deletion accepted: atom 154, ΔE=-0.140 eV
Deletion accepted: atom 204, ΔE=-0.370 eV
Deletion accepted: atom 131, ΔE=-0.215 eV
Deletion accepted: atom 237, ΔE=-0.406 eV
Deletion accepted: atom 203, ΔE=-0.091 eV
Deletion accepted: atom 243, ΔE=-0.082 eV
Deletion accepted: atom 163, ΔE=-0.062 eV
Deletion accepted: atom 184, ΔE=-0.192 eV
Deletion accepted: atom 202, ΔE=-0.250 eV
Deletion accepted: atom 245, ΔE=-0.288 eV
Deletion accepted: atom 187, ΔE=-0.493 eV
Deletion accepted: atom 134, ΔE=-0.148 eV
Deletion accepted: atom 144, ΔE=-0.237 eV
Deletion accepted: atom 200, ΔE=-0.257 eV
Deletion accepted: atom 247, ΔE=-0.253 eV
Deletion accepted: atom 180, ΔE=-0.249 eV
Deletion accepted: atom 238, ΔE=-0.307 eV
GCMC: MD step 220, acceptance ratio = 0.369545
GCMC: Final number of atoms = 250
GCMC: Running 200 MC steps at temperature 300 K
GCMC: Current number of atoms = 250
GCMC step 0: atoms=250, acceptance_rate=0.370
Deletion accepted: atom 140, ΔE=-0.311 eV
Deletion accepted: atom 150, ΔE=-0.308 eV
Deletion accepted: atom 161, ΔE=-0.253 eV
Deletion accepted: atom 134, ΔE=-0.148 eV
Deletion accepted: atom 139, ΔE=-0.404 eV
Deletion accepted: atom 160, ΔE=-0.164 eV
Deletion accepted: atom 132, ΔE=0.365 eV
Deletion accepted: atom 186, ΔE=-0.204 eV
Deletion accepted: atom 141, ΔE=-0.102 eV
Deletion accepted: atom 226, ΔE=-0.225 eV
Deletion accepted: atom 148, ΔE=-0.063 eV
Deletion accepted: atom 135, ΔE=-0.336 eV
Deletion accepted: atom 185, ΔE=-0.203 eV
Deletion accepted: atom 184, ΔE=-0.192 eV
Deletion accepted: atom 131, ΔE=-0.215 eV
Deletion accepted: atom 190, ΔE=-0.269 eV
Deletion accepted: atom 203, ΔE=-0.091 eV
Deletion accepted: atom 219, ΔE=-0.233 eV
Deletion accepted: atom 171, ΔE=-0.202 eV
Deletion accepted: atom 127, ΔE=-0.351 eV
Deletion accepted: atom 214, ΔE=-0.359 eV
Deletion accepted: atom 177, ΔE=4.138 eV
Deletion accepted: atom 224, ΔE=-0.444 eV
Deletion accepted: atom 132, ΔE=0.365 eV
Deletion accepted: atom 247, ΔE=-0.253 eV
Deletion accepted: atom 142, ΔE=-0.320 eV
Deletion accepted: atom 185, ΔE=-0.203 eV
Deletion accepted: atom 173, ΔE=-0.009 eV
Deletion accepted: atom 191, ΔE=-0.084 eV
Deletion accepted: atom 201, ΔE=-0.012 eV
Deletion accepted: atom 125, ΔE=-0.330 eV
GCMC step 100: atoms=250, acceptance_rate=0.370
Deletion accepted: atom 182, ΔE=3.258 eV
Deletion accepted: atom 222, ΔE=-0.236 eV
Deletion accepted: atom 150, ΔE=-0.308 eV
Deletion accepted: atom 144, ΔE=-0.201 eV
Deletion accepted: atom 148, ΔE=-0.063 eV
Deletion accepted: atom 181, ΔE=-0.227 eV
Deletion accepted: atom 213, ΔE=-0.083 eV
Deletion accepted: atom 152, ΔE=-0.548 eV
Deletion accepted: atom 237, ΔE=-0.406 eV
Deletion accepted: atom 222, ΔE=-0.236 eV
Deletion accepted: atom 206, ΔE=-0.332 eV
Deletion accepted: atom 186, ΔE=-0.195 eV
Deletion accepted: atom 172, ΔE=-0.234 eV
Deletion accepted: atom 236, ΔE=-0.171 eV
Deletion accepted: atom 233, ΔE=-0.110 eV
Deletion accepted: atom 201, ΔE=-0.070 eV
Deletion accepted: atom 159, ΔE=-0.322 eV
Deletion accepted: atom 223, ΔE=-0.225 eV
Deletion accepted: atom 203, ΔE=-0.091 eV
Deletion accepted: atom 190, ΔE=-0.269 eV
Deletion accepted: atom 150, ΔE=-0.308 eV
Deletion accepted: atom 125, ΔE=-0.331 eV
Deletion accepted: atom 212, ΔE=-0.486 eV
Deletion accepted: atom 180, ΔE=-0.207 eV
Deletion accepted: atom 206, ΔE=-0.332 eV
Deletion accepted: atom 196, ΔE=-0.032 eV
Deletion accepted: atom 153, ΔE=-0.218 eV
Deletion accepted: atom 223, ΔE=-0.225 eV
Deletion accepted: atom 200, ΔE=-0.257 eV
Deletion accepted: atom 155, ΔE=-0.094 eV
Deletion accepted: atom 247, ΔE=-0.228 eV
Deletion accepted: atom 236, ΔE=-0.171 eV
Deletion accepted: atom 187, ΔE=-0.488 eV
Deletion accepted: atom 232, ΔE=-0.160 eV
Deletion accepted: atom 212, ΔE=-0.486 eV
GCMC: MD step 230, acceptance ratio = 0.372174
GCMC: Final number of atoms = 250
GCMC: Running 200 MC steps at temperature 300 K
GCMC: Current number of atoms = 250
Deletion accepted: atom 191, ΔE=-0.084 eV
GCMC step 0: atoms=250, acceptance_rate=0.372
Deletion accepted: atom 242, ΔE=-0.142 eV
Deletion accepted: atom 185, ΔE=-0.203 eV
Deletion accepted: atom 200, ΔE=-0.257 eV
Deletion accepted: atom 159, ΔE=-0.369 eV
Deletion accepted: atom 193, ΔE=-0.103 eV
Deletion accepted: atom 135, ΔE=-0.336 eV
Deletion accepted: atom 168, ΔE=-0.101 eV
Deletion accepted: atom 215, ΔE=-0.199 eV
Deletion accepted: atom 220, ΔE=-0.143 eV
Deletion accepted: atom 223, ΔE=-0.225 eV
Deletion accepted: atom 249, ΔE=-0.235 eV
Deletion accepted: atom 238, ΔE=-0.307 eV
Deletion accepted: atom 223, ΔE=-0.225 eV
Deletion accepted: atom 177, ΔE=4.091 eV
Deletion accepted: atom 229, ΔE=-0.315 eV
Deletion accepted: atom 210, ΔE=-0.068 eV
Deletion accepted: atom 127, ΔE=-0.343 eV
Deletion accepted: atom 205, ΔE=-0.270 eV
Deletion accepted: atom 229, ΔE=-0.315 eV
Deletion accepted: atom 161, ΔE=-0.253 eV
Deletion accepted: atom 125, ΔE=-0.331 eV
Deletion accepted: atom 187, ΔE=-0.488 eV
Deletion accepted: atom 190, ΔE=-0.269 eV
Deletion accepted: atom 205, ΔE=-0.270 eV
Deletion accepted: atom 200, ΔE=-0.248 eV
Deletion accepted: atom 234, ΔE=-0.154 eV
Deletion accepted: atom 135, ΔE=-0.314 eV
Deletion accepted: atom 136, ΔE=-0.357 eV
Deletion accepted: atom 182, ΔE=2.223 eV
Deletion accepted: atom 190, ΔE=-0.269 eV
Deletion accepted: atom 135, ΔE=-0.314 eV
GCMC step 100: atoms=250, acceptance_rate=0.373
Deletion accepted: atom 132, ΔE=0.365 eV
Deletion accepted: atom 138, ΔE=-0.300 eV
Deletion accepted: atom 186, ΔE=-0.195 eV
Deletion accepted: atom 205, ΔE=-0.270 eV
Deletion accepted: atom 161, ΔE=-0.253 eV
Deletion accepted: atom 153, ΔE=-0.218 eV
Deletion accepted: atom 171, ΔE=-0.201 eV
Deletion accepted: atom 193, ΔE=-0.102 eV
Deletion accepted: atom 133, ΔE=-0.106 eV
Deletion accepted: atom 148, ΔE=-0.253 eV
Deletion accepted: atom 161, ΔE=-0.253 eV
Deletion accepted: atom 160, ΔE=-0.163 eV
Deletion accepted: atom 175, ΔE=-0.218 eV
Deletion accepted: atom 229, ΔE=-0.315 eV
Deletion accepted: atom 221, ΔE=-0.149 eV
Deletion accepted: atom 138, ΔE=-0.300 eV
Deletion accepted: atom 188, ΔE=-0.128 eV
Deletion accepted: atom 137, ΔE=-0.448 eV
Deletion accepted: atom 247, ΔE=-0.228 eV
Deletion accepted: atom 192, ΔE=-0.372 eV
Deletion accepted: atom 136, ΔE=-0.357 eV
Deletion accepted: atom 140, ΔE=-0.322 eV
Deletion accepted: atom 222, ΔE=-0.236 eV
Deletion accepted: atom 196, ΔE=-0.032 eV
Deletion accepted: atom 135, ΔE=-0.314 eV
Deletion accepted: atom 215, ΔE=-0.200 eV
Deletion accepted: atom 229, ΔE=-0.315 eV
Deletion accepted: atom 189, ΔE=-0.390 eV
Deletion accepted: atom 238, ΔE=-0.307 eV
GCMC: MD step 240, acceptance ratio = 0.372083
GCMC: Final number of atoms = 250
GCMC: Running 200 MC steps at temperature 300 K
GCMC: Current number of atoms = 250
Deletion accepted: atom 136, ΔE=-0.357 eV
GCMC step 0: atoms=250, acceptance_rate=0.372
Deletion accepted: atom 219, ΔE=-0.219 eV
Deletion accepted: atom 196, ΔE=-0.032 eV
Deletion accepted: atom 146, ΔE=-0.269 eV
Deletion accepted: atom 202, ΔE=-0.242 eV
Deletion accepted: atom 213, ΔE=-0.083 eV
Deletion accepted: atom 130, ΔE=-0.207 eV
Deletion accepted: atom 158, ΔE=-0.214 eV
Deletion accepted: atom 148, ΔE=-0.253 eV
Deletion accepted: atom 228, ΔE=-0.108 eV
Deletion accepted: atom 139, ΔE=-0.324 eV
Deletion accepted: atom 136, ΔE=-0.357 eV
Deletion accepted: atom 194, ΔE=-0.308 eV
Deletion accepted: atom 182, ΔE=2.223 eV
Deletion accepted: atom 205, ΔE=-0.270 eV
Deletion accepted: atom 210, ΔE=-0.068 eV
Deletion accepted: atom 225, ΔE=-0.102 eV
Deletion accepted: atom 180, ΔE=-0.207 eV
Deletion accepted: atom 220, ΔE=-0.225 eV
Deletion accepted: atom 153, ΔE=-0.261 eV
Deletion accepted: atom 225, ΔE=-0.102 eV
Deletion accepted: atom 236, ΔE=-0.154 eV
Deletion accepted: atom 173, ΔE=-0.010 eV
Deletion accepted: atom 242, ΔE=-0.141 eV
Deletion accepted: atom 214, ΔE=-0.406 eV
Deletion accepted: atom 174, ΔE=-0.460 eV
Deletion accepted: atom 239, ΔE=-0.410 eV
Deletion accepted: atom 172, ΔE=-0.232 eV
Deletion accepted: atom 211, ΔE=-0.082 eV
Deletion accepted: atom 188, ΔE=-0.128 eV
Deletion accepted: atom 199, ΔE=-0.117 eV
Deletion accepted: atom 151, ΔE=-0.165 eV
Deletion accepted: atom 137, ΔE=-0.448 eV
Deletion accepted: atom 232, ΔE=-0.160 eV
Deletion accepted: atom 178, ΔE=-0.106 eV
Deletion accepted: atom 233, ΔE=-0.110 eV
GCMC step 100: atoms=250, acceptance_rate=0.373
Deletion accepted: atom 199, ΔE=-0.117 eV
Deletion accepted: atom 192, ΔE=-0.372 eV
Deletion accepted: atom 186, ΔE=-0.195 eV
Deletion accepted: atom 229, ΔE=-0.315 eV
Deletion accepted: atom 190, ΔE=-0.270 eV
Deletion accepted: atom 247, ΔE=-0.228 eV
Deletion accepted: atom 235, ΔE=-0.479 eV
Deletion accepted: atom 191, ΔE=-0.085 eV
Deletion accepted: atom 150, ΔE=-0.308 eV
Deletion accepted: atom 195, ΔE=0.112 eV
Deletion accepted: atom 220, ΔE=-0.225 eV
Deletion accepted: atom 236, ΔE=-0.154 eV
Deletion accepted: atom 125, ΔE=-0.381 eV
Deletion accepted: atom 232, ΔE=-0.160 eV
Deletion accepted: atom 229, ΔE=-0.315 eV
Deletion accepted: atom 235, ΔE=-0.479 eV
Deletion accepted: atom 150, ΔE=-0.308 eV
Deletion accepted: atom 163, ΔE=-0.062 eV
Deletion accepted: atom 128, ΔE=-0.287 eV
Deletion accepted: atom 189, ΔE=-0.388 eV
Deletion accepted: atom 166, ΔE=-0.000 eV
Deletion accepted: atom 213, ΔE=-0.083 eV
Deletion accepted: atom 125, ΔE=-0.381 eV
Deletion accepted: atom 211, ΔE=-0.082 eV
Deletion accepted: atom 163, ΔE=-0.062 eV
Deletion accepted: atom 215, ΔE=-0.200 eV
Deletion accepted: atom 142, ΔE=-0.425 eV
Deletion accepted: atom 187, ΔE=-0.488 eV
Deletion accepted: atom 230, ΔE=-0.142 eV
Deletion accepted: atom 188, ΔE=-0.128 eV
Deletion accepted: atom 151, ΔE=-0.174 eV
Deletion accepted: atom 143, ΔE=0.512 eV
GCMC: MD step 250, acceptance ratio = 0.374
GCMC: Final number of atoms = 250
GCMC: Running 200 MC steps at temperature 300 K
GCMC: Current number of atoms = 250
GCMC step 0: atoms=250, acceptance_rate=0.374
Deletion accepted: atom 159, ΔE=-0.423 eV
Deletion accepted: atom 134, ΔE=-0.199 eV
Deletion accepted: atom 176, ΔE=-0.116 eV
Deletion accepted: atom 125, ΔE=-0.381 eV
Deletion accepted: atom 126, ΔE=1.059 eV
Deletion accepted: atom 136, ΔE=-0.357 eV
Deletion accepted: atom 223, ΔE=-0.399 eV
Deletion accepted: atom 207, ΔE=-0.126 eV
Deletion accepted: atom 183, ΔE=-0.123 eV
Deletion accepted: atom 177, ΔE=4.126 eV
Deletion accepted: atom 152, ΔE=-0.548 eV
Deletion accepted: atom 221, ΔE=-0.149 eV
Deletion accepted: atom 218, ΔE=-0.001 eV
Deletion accepted: atom 157, ΔE=-0.173 eV
Deletion accepted: atom 227, ΔE=-0.211 eV
Deletion accepted: atom 195, ΔE=-0.080 eV
Deletion accepted: atom 162, ΔE=0.819 eV
Deletion accepted: atom 192, ΔE=-0.372 eV
Deletion accepted: atom 228, ΔE=-0.107 eV
Deletion accepted: atom 227, ΔE=-0.211 eV
Deletion accepted: atom 203, ΔE=-0.102 eV
Deletion accepted: atom 248, ΔE=-0.220 eV
Deletion accepted: atom 128, ΔE=-0.287 eV
Deletion accepted: atom 207, ΔE=-0.126 eV
Deletion accepted: atom 230, ΔE=-0.142 eV
Deletion accepted: atom 182, ΔE=2.284 eV
Deletion accepted: atom 218, ΔE=-0.001 eV
Deletion accepted: atom 172, ΔE=-0.231 eV
Deletion accepted: atom 219, ΔE=-0.222 eV
Deletion accepted: atom 234, ΔE=-0.154 eV
Deletion accepted: atom 168, ΔE=-0.101 eV
Deletion accepted: atom 158, ΔE=-0.279 eV
Deletion accepted: atom 235, ΔE=-0.495 eV
Deletion accepted: atom 216, ΔE=-0.021 eV
Deletion accepted: atom 238, ΔE=-0.307 eV
Deletion accepted: atom 226, ΔE=-0.158 eV
Deletion accepted: atom 158, ΔE=-0.279 eV
Deletion accepted: atom 193, ΔE=-0.102 eV
Deletion accepted: atom 158, ΔE=-0.279 eV
Deletion accepted: atom 217, ΔE=-0.245 eV
GCMC step 100: atoms=250, acceptance_rate=0.376
Deletion accepted: atom 191, ΔE=-0.085 eV
Deletion accepted: atom 248, ΔE=-0.220 eV
Deletion accepted: atom 224, ΔE=-0.411 eV
Deletion accepted: atom 155, ΔE=-0.094 eV
Deletion accepted: atom 144, ΔE=-0.149 eV
Deletion accepted: atom 178, ΔE=-0.103 eV
Deletion accepted: atom 156, ΔE=-0.240 eV
Deletion accepted: atom 233, ΔE=-0.120 eV
Deletion accepted: atom 165, ΔE=-0.279 eV
Deletion accepted: atom 196, ΔE=-0.032 eV
Deletion accepted: atom 194, ΔE=-0.307 eV
Deletion accepted: atom 218, ΔE=-0.001 eV
Deletion accepted: atom 142, ΔE=-0.360 eV
Deletion accepted: atom 165, ΔE=-0.279 eV
Deletion accepted: atom 152, ΔE=-0.514 eV
Deletion accepted: atom 218, ΔE=-0.001 eV
Deletion accepted: atom 229, ΔE=-0.300 eV
Deletion accepted: atom 230, ΔE=-0.142 eV
Deletion accepted: atom 223, ΔE=-0.438 eV
Deletion accepted: atom 167, ΔE=-0.320 eV
Deletion accepted: atom 244, ΔE=4.005 eV
Deletion accepted: atom 234, ΔE=-0.153 eV
Deletion accepted: atom 139, ΔE=-0.297 eV
Deletion accepted: atom 187, ΔE=-0.463 eV
Deletion accepted: atom 150, ΔE=-0.308 eV
Deletion accepted: atom 208, ΔE=-0.184 eV
Deletion accepted: atom 196, ΔE=-0.032 eV
Deletion accepted: atom 224, ΔE=-0.411 eV
Deletion accepted: atom 208, ΔE=-0.184 eV
Deletion accepted: atom 197, ΔE=0.799 eV
Deletion accepted: atom 235, ΔE=-0.495 eV
Deletion accepted: atom 161, ΔE=-0.307 eV
Deletion accepted: atom 130, ΔE=-0.264 eV
Deletion accepted: atom 212, ΔE=-0.484 eV
Deletion accepted: atom 173, ΔE=-0.026 eV
Deletion accepted: atom 206, ΔE=2.865 eV
Deletion accepted: atom 246, ΔE=-0.158 eV
GCMC: MD step 260, acceptance ratio = 0.377115
GCMC: Final number of atoms = 250
GCMC: Running 200 MC steps at temperature 300 K
GCMC: Current number of atoms = 250
GCMC step 0: atoms=250, acceptance_rate=0.377
Deletion accepted: atom 207, ΔE=-0.126 eV
Deletion accepted: atom 222, ΔE=-0.232 eV
Deletion accepted: atom 160, ΔE=-0.187 eV
Deletion accepted: atom 242, ΔE=-0.141 eV
Deletion accepted: atom 246, ΔE=-0.158 eV
Deletion accepted: atom 168, ΔE=-0.103 eV
Deletion accepted: atom 147, ΔE=-0.281 eV
Deletion accepted: atom 213, ΔE=-0.083 eV
Deletion accepted: atom 211, ΔE=-0.098 eV
Deletion accepted: atom 191, ΔE=-0.084 eV
Deletion accepted: atom 182, ΔE=0.762 eV
Deletion accepted: atom 132, ΔE=-0.104 eV
Deletion accepted: atom 202, ΔE=0.068 eV
Deletion accepted: atom 194, ΔE=-0.297 eV
Deletion accepted: atom 129, ΔE=-0.458 eV
Deletion accepted: atom 145, ΔE=-0.293 eV
Deletion accepted: atom 212, ΔE=-0.484 eV
Deletion accepted: atom 137, ΔE=-0.443 eV
Deletion accepted: atom 203, ΔE=-0.103 eV
Deletion accepted: atom 199, ΔE=-0.120 eV
Deletion accepted: atom 225, ΔE=-0.100 eV
Deletion accepted: atom 129, ΔE=-0.458 eV
Deletion accepted: atom 130, ΔE=-0.264 eV
Deletion accepted: atom 185, ΔE=-0.203 eV
Deletion accepted: atom 211, ΔE=-0.098 eV
Deletion accepted: atom 208, ΔE=-0.185 eV
Deletion accepted: atom 188, ΔE=-0.131 eV
Deletion accepted: atom 209, ΔE=-0.261 eV
GCMC step 100: atoms=250, acceptance_rate=0.376
Deletion accepted: atom 154, ΔE=-0.231 eV
Deletion accepted: atom 238, ΔE=-0.297 eV
Deletion accepted: atom 200, ΔE=-0.248 eV
Deletion accepted: atom 178, ΔE=-0.103 eV
Deletion accepted: atom 203, ΔE=-0.103 eV
Deletion accepted: atom 197, ΔE=0.798 eV
Deletion accepted: atom 217, ΔE=-0.245 eV
Deletion accepted: atom 207, ΔE=-0.125 eV
Deletion accepted: atom 158, ΔE=-0.288 eV
Deletion accepted: atom 159, ΔE=-0.425 eV
Deletion accepted: atom 156, ΔE=-0.240 eV
Deletion accepted: atom 222, ΔE=-0.233 eV
Deletion accepted: atom 140, ΔE=-0.307 eV
Deletion accepted: atom 225, ΔE=-0.100 eV
Deletion accepted: atom 247, ΔE=-0.162 eV
Deletion accepted: atom 149, ΔE=-0.234 eV
Deletion accepted: atom 225, ΔE=-0.100 eV
Deletion accepted: atom 198, ΔE=-0.038 eV
Deletion accepted: atom 202, ΔE=0.068 eV
Deletion accepted: atom 219, ΔE=-0.224 eV
Deletion accepted: atom 206, ΔE=2.865 eV
Deletion accepted: atom 222, ΔE=-0.233 eV
Deletion accepted: atom 143, ΔE=0.554 eV
Deletion accepted: atom 240, ΔE=-0.242 eV
Deletion accepted: atom 200, ΔE=-0.248 eV
Deletion accepted: atom 242, ΔE=-0.141 eV
Deletion accepted: atom 126, ΔE=1.059 eV
Deletion accepted: atom 177, ΔE=4.126 eV
Deletion accepted: atom 148, ΔE=-0.253 eV
Deletion accepted: atom 210, ΔE=-0.149 eV
Deletion accepted: atom 211, ΔE=-0.098 eV
Deletion accepted: atom 158, ΔE=-0.288 eV
Deletion accepted: atom 222, ΔE=-0.233 eV
Deletion accepted: atom 195, ΔE=-0.140 eV
Deletion accepted: atom 129, ΔE=-0.458 eV
Deletion accepted: atom 128, ΔE=-0.294 eV
Deletion accepted: atom 180, ΔE=-0.189 eV
Deletion accepted: atom 226, ΔE=-0.158 eV
GCMC: MD step 270, acceptance ratio = 0.377407
GCMC: Final number of atoms = 250
GCMC: Running 200 MC steps at temperature 300 K
GCMC: Current number of atoms = 250
GCMC step 0: atoms=250, acceptance_rate=0.377
Deletion accepted: atom 163, ΔE=-0.062 eV
Deletion accepted: atom 216, ΔE=-0.022 eV
Deletion accepted: atom 196, ΔE=-0.032 eV
Deletion accepted: atom 190, ΔE=-0.269 eV
Deletion accepted: atom 153, ΔE=-0.261 eV
Deletion accepted: atom 165, ΔE=-0.280 eV
Deletion accepted: atom 224, ΔE=-0.360 eV
Deletion accepted: atom 241, ΔE=-0.337 eV
Deletion accepted: atom 144, ΔE=-0.178 eV
Deletion accepted: atom 203, ΔE=-0.103 eV
Deletion accepted: atom 237, ΔE=-0.406 eV
Deletion accepted: atom 172, ΔE=-0.234 eV
Deletion accepted: atom 138, ΔE=-0.222 eV
Deletion accepted: atom 167, ΔE=-0.354 eV
Deletion accepted: atom 133, ΔE=-0.070 eV
Deletion accepted: atom 224, ΔE=-0.360 eV
Deletion accepted: atom 145, ΔE=-0.294 eV
Deletion accepted: atom 230, ΔE=-0.108 eV
Deletion accepted: atom 207, ΔE=-0.125 eV
Deletion accepted: atom 226, ΔE=-0.158 eV
Deletion accepted: atom 179, ΔE=-0.418 eV
Deletion accepted: atom 161, ΔE=-0.283 eV
Deletion accepted: atom 141, ΔE=-0.091 eV
GCMC step 100: atoms=250, acceptance_rate=0.376
Deletion accepted: atom 163, ΔE=-0.062 eV
Deletion accepted: atom 151, ΔE=-0.171 eV
Deletion accepted: atom 245, ΔE=-0.287 eV
Deletion accepted: atom 226, ΔE=-0.158 eV
Deletion accepted: atom 211, ΔE=-0.098 eV
Deletion accepted: atom 143, ΔE=0.649 eV
Deletion accepted: atom 242, ΔE=-0.141 eV
Deletion accepted: atom 213, ΔE=-0.081 eV
Deletion accepted: atom 154, ΔE=-0.228 eV
Deletion accepted: atom 209, ΔE=-0.254 eV
Deletion accepted: atom 245, ΔE=-0.287 eV
Deletion accepted: atom 169, ΔE=-0.262 eV
Deletion accepted: atom 192, ΔE=-0.291 eV
Deletion accepted: atom 168, ΔE=-0.102 eV
Deletion accepted: atom 176, ΔE=-0.115 eV
Deletion accepted: atom 157, ΔE=-0.172 eV
Deletion accepted: atom 160, ΔE=-0.187 eV
Deletion accepted: atom 204, ΔE=-0.331 eV
Deletion accepted: atom 129, ΔE=-0.457 eV
Deletion accepted: atom 243, ΔE=-0.020 eV
Deletion accepted: atom 243, ΔE=-0.020 eV
Deletion accepted: atom 200, ΔE=-0.248 eV
Deletion accepted: atom 231, ΔE=-0.138 eV
Deletion accepted: atom 199, ΔE=-0.119 eV
Deletion accepted: atom 194, ΔE=-0.311 eV
Deletion accepted: atom 226, ΔE=-0.158 eV
Deletion accepted: atom 237, ΔE=-0.406 eV
Deletion accepted: atom 194, ΔE=-0.311 eV
Deletion accepted: atom 142, ΔE=-0.362 eV
Deletion accepted: atom 198, ΔE=-0.038 eV
GCMC: MD step 280, acceptance ratio = 0.375714
GCMC: Final number of atoms = 250
GCMC: Running 200 MC steps at temperature 300 K
GCMC: Current number of atoms = 250
GCMC step 0: atoms=250, acceptance_rate=0.376
Deletion accepted: atom 218, ΔE=-0.001 eV
Deletion accepted: atom 166, ΔE=-0.000 eV
Deletion accepted: atom 205, ΔE=-0.248 eV
Deletion accepted: atom 125, ΔE=-0.382 eV
Deletion accepted: atom 177, ΔE=4.125 eV
Deletion accepted: atom 136, ΔE=-0.314 eV
Deletion accepted: atom 224, ΔE=-0.314 eV
Deletion accepted: atom 249, ΔE=-0.182 eV
Deletion accepted: atom 140, ΔE=-0.316 eV
Deletion accepted: atom 181, ΔE=-0.188 eV
Deletion accepted: atom 165, ΔE=-0.280 eV
Deletion accepted: atom 131, ΔE=-0.218 eV
Deletion accepted: atom 168, ΔE=-0.102 eV
Deletion accepted: atom 241, ΔE=-0.313 eV
Deletion accepted: atom 220, ΔE=-0.212 eV
Deletion accepted: atom 152, ΔE=-0.514 eV
Deletion accepted: atom 210, ΔE=-0.145 eV
Deletion accepted: atom 162, ΔE=0.818 eV
Deletion accepted: atom 195, ΔE=-0.140 eV
Deletion accepted: atom 226, ΔE=-0.158 eV
Deletion accepted: atom 215, ΔE=-0.198 eV
Deletion accepted: atom 189, ΔE=-0.210 eV
Deletion accepted: atom 185, ΔE=-0.203 eV
Deletion accepted: atom 172, ΔE=-0.234 eV
Deletion accepted: atom 235, ΔE=-0.491 eV
Deletion accepted: atom 166, ΔE=-0.000 eV
Deletion accepted: atom 130, ΔE=-0.273 eV
Deletion accepted: atom 136, ΔE=-0.314 eV
Deletion accepted: atom 127, ΔE=-0.343 eV
Deletion accepted: atom 216, ΔE=-0.019 eV
Deletion accepted: atom 231, ΔE=-0.138 eV
Deletion accepted: atom 155, ΔE=-0.123 eV
Deletion accepted: atom 181, ΔE=-0.188 eV
Deletion accepted: atom 204, ΔE=-0.331 eV
Deletion accepted: atom 140, ΔE=-0.316 eV
Deletion accepted: atom 215, ΔE=-0.198 eV
Deletion accepted: atom 202, ΔE=0.068 eV
Deletion accepted: atom 214, ΔE=-0.404 eV
Deletion accepted: atom 224, ΔE=-0.314 eV
Deletion accepted: atom 135, ΔE=-0.314 eV
Deletion accepted: atom 202, ΔE=0.068 eV
GCMC step 100: atoms=250, acceptance_rate=0.377
Deletion accepted: atom 133, ΔE=-0.070 eV
Deletion accepted: atom 156, ΔE=-0.240 eV
Deletion accepted: atom 203, ΔE=-0.103 eV
Deletion accepted: atom 156, ΔE=-0.240 eV
Deletion accepted: atom 152, ΔE=-0.474 eV
Deletion accepted: atom 152, ΔE=-0.474 eV
Deletion accepted: atom 143, ΔE=-0.296 eV
Deletion accepted: atom 246, ΔE=-0.172 eV
Deletion accepted: atom 161, ΔE=-0.280 eV
Deletion accepted: atom 196, ΔE=-0.032 eV
Deletion accepted: atom 140, ΔE=-0.316 eV
Deletion accepted: atom 249, ΔE=-0.182 eV
Deletion accepted: atom 153, ΔE=-0.261 eV
Deletion accepted: atom 231, ΔE=-0.138 eV
Deletion accepted: atom 201, ΔE=-0.040 eV
Deletion accepted: atom 159, ΔE=-0.430 eV
Deletion accepted: atom 158, ΔE=-0.248 eV
Deletion accepted: atom 201, ΔE=-0.040 eV
Deletion accepted: atom 214, ΔE=-0.404 eV
Deletion accepted: atom 130, ΔE=-0.273 eV
Deletion accepted: atom 210, ΔE=-0.145 eV
Deletion accepted: atom 241, ΔE=-0.313 eV
Deletion accepted: atom 225, ΔE=-0.103 eV
Deletion accepted: atom 239, ΔE=-0.491 eV
Deletion accepted: atom 244, ΔE=4.005 eV
Deletion accepted: atom 236, ΔE=-0.154 eV
Deletion accepted: atom 220, ΔE=-0.212 eV
Deletion accepted: atom 169, ΔE=-0.280 eV
Deletion accepted: atom 222, ΔE=-0.278 eV
Deletion accepted: atom 129, ΔE=-0.457 eV
Deletion accepted: atom 238, ΔE=-0.295 eV
Deletion accepted: atom 173, ΔE=-0.027 eV
Deletion accepted: atom 169, ΔE=-0.280 eV
Deletion accepted: atom 205, ΔE=-0.222 eV
Deletion accepted: atom 239, ΔE=-0.491 eV
GCMC: MD step 290, acceptance ratio = 0.378276
GCMC: Final number of atoms = 250
GCMC: Running 200 MC steps at temperature 300 K
GCMC: Current number of atoms = 250
GCMC step 0: atoms=250, acceptance_rate=0.378
Deletion accepted: atom 226, ΔE=-0.188 eV
Deletion accepted: atom 185, ΔE=-0.203 eV
Deletion accepted: atom 192, ΔE=-0.291 eV
Deletion accepted: atom 171, ΔE=-0.235 eV
Deletion accepted: atom 246, ΔE=-0.173 eV
Deletion accepted: atom 219, ΔE=-0.224 eV
Deletion accepted: atom 185, ΔE=-0.203 eV
Deletion accepted: atom 233, ΔE=-0.158 eV
Deletion accepted: atom 172, ΔE=-0.234 eV
Deletion accepted: atom 244, ΔE=4.005 eV
Deletion accepted: atom 195, ΔE=-0.142 eV
Deletion accepted: atom 183, ΔE=-0.072 eV
Deletion accepted: atom 160, ΔE=-0.187 eV
Deletion accepted: atom 169, ΔE=-0.280 eV
Deletion accepted: atom 215, ΔE=-0.281 eV
Deletion accepted: atom 176, ΔE=-0.115 eV
Deletion accepted: atom 192, ΔE=-0.291 eV
Deletion accepted: atom 236, ΔE=-0.154 eV
Deletion accepted: atom 202, ΔE=0.080 eV
Deletion accepted: atom 247, ΔE=-0.170 eV
Deletion accepted: atom 150, ΔE=-0.282 eV
Deletion accepted: atom 134, ΔE=-0.128 eV
Deletion accepted: atom 189, ΔE=-0.218 eV
Deletion accepted: atom 174, ΔE=-0.503 eV
Deletion accepted: atom 193, ΔE=-0.102 eV
Deletion accepted: atom 202, ΔE=0.020 eV
Deletion accepted: atom 175, ΔE=-0.218 eV
Deletion accepted: atom 206, ΔE=-0.218 eV
Deletion accepted: atom 139, ΔE=-0.300 eV
Deletion accepted: atom 173, ΔE=-0.027 eV
Deletion accepted: atom 194, ΔE=-0.322 eV
GCMC step 100: atoms=250, acceptance_rate=0.379
Deletion accepted: atom 135, ΔE=-0.321 eV
Deletion accepted: atom 216, ΔE=-0.016 eV
Deletion accepted: atom 233, ΔE=-0.159 eV
Deletion accepted: atom 164, ΔE=-0.180 eV
Deletion accepted: atom 168, ΔE=-0.102 eV
Deletion accepted: atom 243, ΔE=-0.020 eV
Deletion accepted: atom 169, ΔE=-0.280 eV
Deletion accepted: atom 209, ΔE=-0.254 eV
Deletion accepted: atom 190, ΔE=-0.267 eV
Deletion accepted: atom 211, ΔE=-0.098 eV
Deletion accepted: atom 214, ΔE=-0.424 eV
Deletion accepted: atom 225, ΔE=-0.102 eV
Deletion accepted: atom 228, ΔE=-0.105 eV
Deletion accepted: atom 140, ΔE=-0.319 eV
Deletion accepted: atom 151, ΔE=-0.170 eV
Deletion accepted: atom 146, ΔE=-0.305 eV
Deletion accepted: atom 169, ΔE=-0.280 eV
Deletion accepted: atom 238, ΔE=-0.295 eV
Deletion accepted: atom 163, ΔE=-0.062 eV
Deletion accepted: atom 205, ΔE=-0.156 eV
Deletion accepted: atom 128, ΔE=-0.294 eV
Deletion accepted: atom 130, ΔE=-0.275 eV
Deletion accepted: atom 203, ΔE=-0.103 eV
Deletion accepted: atom 201, ΔE=-0.041 eV
Deletion accepted: atom 179, ΔE=-0.418 eV
Deletion accepted: atom 133, ΔE=-0.070 eV
Deletion accepted: atom 140, ΔE=-0.319 eV
Deletion accepted: atom 130, ΔE=-0.275 eV
Deletion accepted: atom 187, ΔE=-0.542 eV
Deletion accepted: atom 241, ΔE=-0.313 eV
Deletion accepted: atom 132, ΔE=-0.102 eV
Deletion accepted: atom 233, ΔE=-0.159 eV
Deletion accepted: atom 233, ΔE=-0.159 eV
Deletion accepted: atom 234, ΔE=-0.158 eV
Deletion accepted: atom 133, ΔE=-0.070 eV
Deletion accepted: atom 185, ΔE=-0.203 eV
Deletion accepted: atom 241, ΔE=-0.313 eV
GCMC: MD step 300, acceptance ratio = 0.379333
GCMC: Final number of atoms = 250
    300 steps completed.
GCMC: Running 200 MC steps at temperature 300 K
GCMC: Current number of atoms = 250
Deletion accepted: atom 217, ΔE=-0.247 eV
GCMC step 0: atoms=250, acceptance_rate=0.379
Deletion accepted: atom 207, ΔE=-0.124 eV
Deletion accepted: atom 150, ΔE=-0.281 eV
Deletion accepted: atom 214, ΔE=-0.424 eV
Deletion accepted: atom 235, ΔE=-0.439 eV
Deletion accepted: atom 239, ΔE=-0.492 eV
Deletion accepted: atom 246, ΔE=-0.172 eV
Deletion accepted: atom 249, ΔE=-0.182 eV
Deletion accepted: atom 181, ΔE=-0.187 eV
Deletion accepted: atom 175, ΔE=-0.218 eV
Deletion accepted: atom 236, ΔE=-0.153 eV
Deletion accepted: atom 186, ΔE=-0.144 eV
Deletion accepted: atom 203, ΔE=-0.103 eV
Deletion accepted: atom 220, ΔE=-0.211 eV
Deletion accepted: atom 222, ΔE=-0.278 eV
Deletion accepted: atom 246, ΔE=-0.172 eV
Deletion accepted: atom 189, ΔE=-0.223 eV
Deletion accepted: atom 173, ΔE=-0.005 eV
Deletion accepted: atom 144, ΔE=-0.161 eV
Deletion accepted: atom 147, ΔE=-0.277 eV
Deletion accepted: atom 230, ΔE=-0.108 eV
Deletion accepted: atom 229, ΔE=-0.246 eV
Deletion accepted: atom 208, ΔE=-0.185 eV
Deletion accepted: atom 187, ΔE=-0.542 eV
Deletion accepted: atom 173, ΔE=-0.005 eV
Deletion accepted: atom 154, ΔE=-0.229 eV
Deletion accepted: atom 212, ΔE=-0.470 eV
Deletion accepted: atom 192, ΔE=-0.291 eV
Deletion accepted: atom 185, ΔE=-0.203 eV
Deletion accepted: atom 149, ΔE=-0.235 eV
Deletion accepted: atom 169, ΔE=-0.309 eV
Deletion accepted: atom 210, ΔE=-0.147 eV
Deletion accepted: atom 234, ΔE=-0.158 eV
Deletion accepted: atom 240, ΔE=-0.245 eV
GCMC step 100: atoms=250, acceptance_rate=0.380
Deletion accepted: atom 202, ΔE=0.020 eV
Deletion accepted: atom 221, ΔE=-0.093 eV
Deletion accepted: atom 231, ΔE=-0.128 eV
Deletion accepted: atom 143, ΔE=-0.307 eV
Deletion accepted: atom 235, ΔE=-0.468 eV
Deletion accepted: atom 216, ΔE=-0.016 eV
Deletion accepted: atom 240, ΔE=-0.245 eV
Deletion accepted: atom 215, ΔE=-0.282 eV
Deletion accepted: atom 192, ΔE=-0.291 eV
Deletion accepted: atom 134, ΔE=-0.130 eV
Deletion accepted: atom 178, ΔE=-0.103 eV
Deletion accepted: atom 147, ΔE=-0.277 eV
Deletion accepted: atom 233, ΔE=-0.174 eV
Deletion accepted: atom 148, ΔE=-0.337 eV
Deletion accepted: atom 196, ΔE=-0.012 eV
Deletion accepted: atom 204, ΔE=-0.331 eV
Deletion accepted: atom 191, ΔE=-0.084 eV
Deletion accepted: atom 157, ΔE=-0.167 eV
Deletion accepted: atom 156, ΔE=-0.203 eV
Deletion accepted: atom 152, ΔE=-0.378 eV
Deletion accepted: atom 188, ΔE=-0.131 eV
Deletion accepted: atom 151, ΔE=-0.171 eV
Deletion accepted: atom 203, ΔE=-0.103 eV
Deletion accepted: atom 160, ΔE=-0.171 eV
Deletion accepted: atom 134, ΔE=-0.130 eV
Deletion accepted: atom 202, ΔE=0.020 eV
Deletion accepted: atom 187, ΔE=-0.543 eV
Deletion accepted: atom 189, ΔE=-0.223 eV
Deletion accepted: atom 204, ΔE=-0.331 eV
Deletion accepted: atom 126, ΔE=1.033 eV
Deletion accepted: atom 207, ΔE=-0.132 eV
Deletion accepted: atom 209, ΔE=-0.254 eV
Deletion accepted: atom 188, ΔE=-0.131 eV
Deletion accepted: atom 154, ΔE=-0.229 eV
Deletion accepted: atom 205, ΔE=-0.155 eV
Deletion accepted: atom 231, ΔE=-0.128 eV
GCMC: MD step 310, acceptance ratio = 0.381129
GCMC: Final number of atoms = 250
GCMC: Running 200 MC steps at temperature 300 K
GCMC: Current number of atoms = 250
Deletion accepted: atom 241, ΔE=-0.313 eV
GCMC step 0: atoms=250, acceptance_rate=0.381
Deletion accepted: atom 150, ΔE=-0.281 eV
Deletion accepted: atom 225, ΔE=-0.102 eV
Deletion accepted: atom 156, ΔE=-0.203 eV
Deletion accepted: atom 229, ΔE=-0.246 eV
Deletion accepted: atom 161, ΔE=-0.319 eV
Deletion accepted: atom 192, ΔE=-0.291 eV
Deletion accepted: atom 208, ΔE=-0.186 eV
Deletion accepted: atom 199, ΔE=-0.119 eV
Deletion accepted: atom 158, ΔE=-0.254 eV
Deletion accepted: atom 246, ΔE=-0.172 eV
Deletion accepted: atom 233, ΔE=-0.174 eV
Deletion accepted: atom 133, ΔE=-0.070 eV
Deletion accepted: atom 239, ΔE=-0.492 eV
Deletion accepted: atom 159, ΔE=-0.509 eV
Deletion accepted: atom 139, ΔE=-0.301 eV
Deletion accepted: atom 172, ΔE=-0.234 eV
Deletion accepted: atom 145, ΔE=-0.294 eV
Deletion accepted: atom 218, ΔE=-0.001 eV
Deletion accepted: atom 141, ΔE=-0.154 eV
Deletion accepted: atom 156, ΔE=-0.203 eV
Deletion accepted: atom 222, ΔE=-0.278 eV
Deletion accepted: atom 168, ΔE=-0.102 eV
Deletion accepted: atom 156, ΔE=-0.203 eV
Deletion accepted: atom 164, ΔE=-0.181 eV
Deletion accepted: atom 145, ΔE=-0.294 eV
Deletion accepted: atom 146, ΔE=-0.305 eV
Deletion accepted: atom 232, ΔE=-0.159 eV
Deletion accepted: atom 130, ΔE=-0.275 eV
Deletion accepted: atom 172, ΔE=-0.234 eV
GCMC step 100: atoms=250, acceptance_rate=0.381
Deletion accepted: atom 194, ΔE=-0.328 eV
Deletion accepted: atom 214, ΔE=-0.424 eV
Deletion accepted: atom 191, ΔE=-0.084 eV
Deletion accepted: atom 177, ΔE=4.096 eV
Deletion accepted: atom 194, ΔE=-0.328 eV
Deletion accepted: atom 200, ΔE=-0.177 eV
Deletion accepted: atom 131, ΔE=-0.223 eV
Deletion accepted: atom 197, ΔE=0.796 eV
Deletion accepted: atom 125, ΔE=-0.438 eV
Deletion accepted: atom 238, ΔE=-0.295 eV
Deletion accepted: atom 238, ΔE=-0.295 eV
Deletion accepted: atom 149, ΔE=-0.239 eV
Deletion accepted: atom 167, ΔE=-0.350 eV
Deletion accepted: atom 190, ΔE=-0.267 eV
[...]
Deletion accepted: atom 240, ΔE=-0.325 eV
Deletion accepted: atom 143, ΔE=-0.453 eV
Deletion accepted: atom 225, ΔE=-0.123 eV
Deletion accepted: atom 165, ΔE=-0.289 eV
Deletion accepted: atom 226, ΔE=-0.355 eV
Deletion accepted: atom 235, ΔE=-0.281 eV
Deletion accepted: atom 213, ΔE=-0.191 eV
GCMC: MD step 940, acceptance ratio = 0.394521
GCMC: Final number of atoms = 250
GCMC: Running 200 MC steps at temperature 300 K
GCMC: Current number of atoms = 250
GCMC step 0: atoms=250, acceptance_rate=0.395
Deletion accepted: atom 146, ΔE=-0.397 eV
Deletion accepted: atom 142, ΔE=-0.351 eV
Deletion accepted: atom 158, ΔE=-0.260 eV
Deletion accepted: atom 239, ΔE=-0.560 eV
Deletion accepted: atom 222, ΔE=-0.326 eV
Deletion accepted: atom 184, ΔE=-0.248 eV
Deletion accepted: atom 172, ΔE=-0.418 eV
Deletion accepted: atom 166, ΔE=-0.101 eV
Deletion accepted: atom 201, ΔE=-0.153 eV
Deletion accepted: atom 172, ΔE=-0.418 eV
Deletion accepted: atom 179, ΔE=-0.456 eV
Deletion accepted: atom 155, ΔE=-0.280 eV
Deletion accepted: atom 221, ΔE=-0.112 eV
Deletion accepted: atom 170, ΔE=-0.649 eV
Deletion accepted: atom 169, ΔE=-0.241 eV
Deletion accepted: atom 131, ΔE=-0.327 eV
Deletion accepted: atom 186, ΔE=-0.204 eV
Deletion accepted: atom 202, ΔE=-0.487 eV
Deletion accepted: atom 180, ΔE=-0.596 eV
Deletion accepted: atom 168, ΔE=-0.165 eV
Deletion accepted: atom 201, ΔE=-0.153 eV
Deletion accepted: atom 184, ΔE=-0.247 eV
Deletion accepted: atom 215, ΔE=-0.305 eV
Deletion accepted: atom 193, ΔE=-0.356 eV
Deletion accepted: atom 200, ΔE=-0.035 eV
Deletion accepted: atom 220, ΔE=-0.065 eV
Deletion accepted: atom 216, ΔE=-0.201 eV
Deletion accepted: atom 202, ΔE=-0.502 eV
Deletion accepted: atom 212, ΔE=-0.604 eV
Deletion accepted: atom 172, ΔE=-0.418 eV
Deletion accepted: atom 200, ΔE=-0.035 eV
Deletion accepted: atom 174, ΔE=-0.406 eV
Deletion accepted: atom 178, ΔE=-0.193 eV
GCMC step 100: atoms=250, acceptance_rate=0.394
Deletion accepted: atom 241, ΔE=-0.234 eV
Deletion accepted: atom 135, ΔE=-0.280 eV
Deletion accepted: atom 184, ΔE=-0.247 eV
Deletion accepted: atom 143, ΔE=-0.463 eV
Deletion accepted: atom 195, ΔE=-0.525 eV
Deletion accepted: atom 224, ΔE=-0.535 eV
Deletion accepted: atom 217, ΔE=-0.104 eV
Deletion accepted: atom 143, ΔE=-0.463 eV
Deletion accepted: atom 220, ΔE=-0.065 eV
Deletion accepted: atom 169, ΔE=-0.241 eV
Deletion accepted: atom 207, ΔE=-0.287 eV
Deletion accepted: atom 249, ΔE=-0.288 eV
Deletion accepted: atom 152, ΔE=-0.637 eV
Deletion accepted: atom 173, ΔE=-0.091 eV
Deletion accepted: atom 149, ΔE=-0.171 eV
Deletion accepted: atom 137, ΔE=-0.569 eV
Deletion accepted: atom 245, ΔE=-0.405 eV
Deletion accepted: atom 142, ΔE=-0.351 eV
Deletion accepted: atom 139, ΔE=-0.417 eV
Deletion accepted: atom 221, ΔE=-0.112 eV
Deletion accepted: atom 157, ΔE=-0.347 eV
Deletion accepted: atom 126, ΔE=-0.423 eV
Deletion accepted: atom 216, ΔE=-0.201 eV
Deletion accepted: atom 179, ΔE=-0.456 eV
Deletion accepted: atom 157, ΔE=-0.347 eV
Deletion accepted: atom 145, ΔE=-0.413 eV
Deletion accepted: atom 175, ΔE=-0.257 eV
Deletion accepted: atom 154, ΔE=-0.421 eV
Deletion accepted: atom 158, ΔE=-0.258 eV
Deletion accepted: atom 137, ΔE=-0.569 eV
Deletion accepted: atom 205, ΔE=-0.432 eV
Deletion accepted: atom 154, ΔE=-0.421 eV
Deletion accepted: atom 150, ΔE=-0.377 eV
GCMC: MD step 950, acceptance ratio = 0.394368
GCMC: Final number of atoms = 250
GCMC: Running 200 MC steps at temperature 300 K
GCMC: Current number of atoms = 250
Deletion accepted: atom 198, ΔE=-0.052 eV
GCMC step 0: atoms=250, acceptance_rate=0.394
Deletion accepted: atom 202, ΔE=-0.502 eV
Deletion accepted: atom 184, ΔE=-0.247 eV
Deletion accepted: atom 142, ΔE=-0.351 eV
Deletion accepted: atom 130, ΔE=-0.409 eV
Deletion accepted: atom 132, ΔE=-0.399 eV
Deletion accepted: atom 146, ΔE=-0.397 eV
Deletion accepted: atom 148, ΔE=-0.615 eV
Deletion accepted: atom 246, ΔE=-0.213 eV
Deletion accepted: atom 148, ΔE=-0.615 eV
Deletion accepted: atom 216, ΔE=-0.202 eV
Deletion accepted: atom 207, ΔE=-0.287 eV
Deletion accepted: atom 186, ΔE=-0.204 eV
Deletion accepted: atom 236, ΔE=-0.201 eV
Deletion accepted: atom 210, ΔE=-0.657 eV
Deletion accepted: atom 236, ΔE=-0.201 eV
Deletion accepted: atom 201, ΔE=-0.153 eV
Deletion accepted: atom 157, ΔE=-0.347 eV
Deletion accepted: atom 219, ΔE=-0.714 eV
Deletion accepted: atom 182, ΔE=-0.447 eV
Deletion accepted: atom 156, ΔE=-0.184 eV
Deletion accepted: atom 215, ΔE=-0.305 eV
Deletion accepted: atom 190, ΔE=-0.361 eV
Deletion accepted: atom 248, ΔE=-0.145 eV
GCMC step 100: atoms=250, acceptance_rate=0.394
Deletion accepted: atom 167, ΔE=-0.516 eV
Deletion accepted: atom 158, ΔE=-0.258 eV
Deletion accepted: atom 162, ΔE=-0.256 eV
Deletion accepted: atom 160, ΔE=-0.307 eV
Deletion accepted: atom 170, ΔE=-0.643 eV
Deletion accepted: atom 172, ΔE=-0.418 eV
Deletion accepted: atom 125, ΔE=-0.358 eV
Deletion accepted: atom 164, ΔE=-0.515 eV
Deletion accepted: atom 144, ΔE=-0.490 eV
Deletion accepted: atom 131, ΔE=-0.327 eV
Deletion accepted: atom 205, ΔE=-0.432 eV
Deletion accepted: atom 143, ΔE=-0.463 eV
Deletion accepted: atom 243, ΔE=-0.155 eV
Deletion accepted: atom 236, ΔE=-0.201 eV
Deletion accepted: atom 220, ΔE=-0.065 eV
Deletion accepted: atom 214, ΔE=-0.608 eV
Deletion accepted: atom 232, ΔE=-0.420 eV
Deletion accepted: atom 138, ΔE=-0.503 eV
Deletion accepted: atom 207, ΔE=-0.287 eV
Deletion accepted: atom 147, ΔE=-0.434 eV
Deletion accepted: atom 241, ΔE=-0.235 eV
Deletion accepted: atom 247, ΔE=-0.025 eV
Deletion accepted: atom 209, ΔE=-0.375 eV
Deletion accepted: atom 198, ΔE=-0.052 eV
Deletion accepted: atom 202, ΔE=-0.510 eV
Deletion accepted: atom 154, ΔE=-0.421 eV
Deletion accepted: atom 216, ΔE=-0.208 eV
Deletion accepted: atom 131, ΔE=-0.327 eV
Deletion accepted: atom 139, ΔE=-0.424 eV
Deletion accepted: atom 136, ΔE=-0.517 eV
Deletion accepted: atom 143, ΔE=-0.463 eV
Deletion accepted: atom 235, ΔE=-0.297 eV
Deletion accepted: atom 168, ΔE=-0.165 eV
Deletion accepted: atom 239, ΔE=-0.560 eV
Deletion accepted: atom 204, ΔE=-0.418 eV
Deletion accepted: atom 208, ΔE=-0.197 eV
Deletion accepted: atom 155, ΔE=-0.309 eV
Deletion accepted: atom 198, ΔE=-0.052 eV
Deletion accepted: atom 231, ΔE=-0.387 eV
Deletion accepted: atom 195, ΔE=-0.512 eV
Deletion accepted: atom 139, ΔE=-0.424 eV
Deletion accepted: atom 171, ΔE=-0.343 eV
Deletion accepted: atom 192, ΔE=-0.211 eV
Deletion accepted: atom 198, ΔE=-0.052 eV
Deletion accepted: atom 184, ΔE=-0.252 eV
Deletion accepted: atom 148, ΔE=-0.615 eV
Deletion accepted: atom 167, ΔE=-0.516 eV
Deletion accepted: atom 198, ΔE=-0.052 eV
Deletion accepted: atom 234, ΔE=-0.396 eV
Deletion accepted: atom 181, ΔE=-0.432 eV
Deletion accepted: atom 226, ΔE=-0.265 eV
Deletion accepted: atom 162, ΔE=-0.256 eV
GCMC: MD step 960, acceptance ratio = 0.394635
GCMC: Final number of atoms = 250
GCMC: Running 200 MC steps at temperature 300 K
GCMC: Current number of atoms = 250
Deletion accepted: atom 187, ΔE=-0.358 eV
GCMC step 0: atoms=250, acceptance_rate=0.395
Deletion accepted: atom 185, ΔE=-0.346 eV
Deletion accepted: atom 141, ΔE=-0.271 eV
Deletion accepted: atom 232, ΔE=-0.420 eV
Deletion accepted: atom 196, ΔE=-0.145 eV
Deletion accepted: atom 139, ΔE=-0.424 eV
Deletion accepted: atom 136, ΔE=-0.517 eV
Deletion accepted: atom 202, ΔE=-0.510 eV
Deletion accepted: atom 135, ΔE=-0.296 eV
Deletion accepted: atom 193, ΔE=-0.356 eV
Deletion accepted: atom 213, ΔE=-0.178 eV
Deletion accepted: atom 170, ΔE=-0.643 eV
Deletion accepted: atom 206, ΔE=-0.334 eV
Deletion accepted: atom 218, ΔE=-0.077 eV
Deletion accepted: atom 189, ΔE=-0.702 eV
Deletion accepted: atom 198, ΔE=-0.052 eV
Deletion accepted: atom 165, ΔE=-0.297 eV
Deletion accepted: atom 165, ΔE=-0.297 eV
Deletion accepted: atom 151, ΔE=-0.346 eV
Deletion accepted: atom 175, ΔE=-0.257 eV
Deletion accepted: atom 154, ΔE=-0.421 eV
Deletion accepted: atom 240, ΔE=-0.324 eV
Deletion accepted: atom 200, ΔE=-0.100 eV
Deletion accepted: atom 153, ΔE=-0.271 eV
Deletion accepted: atom 188, ΔE=-0.276 eV
Deletion accepted: atom 143, ΔE=-0.464 eV
Deletion accepted: atom 226, ΔE=-0.265 eV
Deletion accepted: atom 181, ΔE=-0.432 eV
Deletion accepted: atom 195, ΔE=-0.512 eV
GCMC step 100: atoms=250, acceptance_rate=0.394
Deletion accepted: atom 140, ΔE=-0.428 eV
Deletion accepted: atom 230, ΔE=-0.133 eV
Deletion accepted: atom 207, ΔE=-0.282 eV
Deletion accepted: atom 160, ΔE=-0.314 eV
Deletion accepted: atom 168, ΔE=-0.165 eV
Deletion accepted: atom 137, ΔE=-0.573 eV
Deletion accepted: atom 136, ΔE=-0.516 eV
Deletion accepted: atom 229, ΔE=-0.400 eV
Deletion accepted: atom 172, ΔE=-0.418 eV
Deletion accepted: atom 212, ΔE=-0.599 eV
Deletion accepted: atom 169, ΔE=-0.269 eV
Deletion accepted: atom 188, ΔE=-0.276 eV
Deletion accepted: atom 125, ΔE=-0.358 eV
Deletion accepted: atom 204, ΔE=-0.418 eV
Deletion accepted: atom 175, ΔE=-0.257 eV
Deletion accepted: atom 183, ΔE=-0.000 eV
Deletion accepted: atom 246, ΔE=-0.213 eV
Deletion accepted: atom 231, ΔE=-0.388 eV
Deletion accepted: atom 161, ΔE=-0.311 eV
Deletion accepted: atom 241, ΔE=-0.235 eV
Deletion accepted: atom 204, ΔE=-0.418 eV
Deletion accepted: atom 140, ΔE=-0.428 eV
Deletion accepted: atom 185, ΔE=-0.346 eV
Deletion accepted: atom 222, ΔE=-0.366 eV
Deletion accepted: atom 141, ΔE=-0.271 eV
Deletion accepted: atom 221, ΔE=-0.112 eV
Deletion accepted: atom 242, ΔE=-0.001 eV
Deletion accepted: atom 238, ΔE=-0.317 eV
Deletion accepted: atom 127, ΔE=-0.276 eV
Deletion accepted: atom 245, ΔE=-0.409 eV
Deletion accepted: atom 168, ΔE=-0.199 eV
Deletion accepted: atom 227, ΔE=-0.314 eV
Deletion accepted: atom 248, ΔE=-0.145 eV
GCMC: MD step 970, acceptance ratio = 0.394227
GCMC: Final number of atoms = 250
GCMC: Running 200 MC steps at temperature 300 K
GCMC: Current number of atoms = 250
Deletion accepted: atom 234, ΔE=-0.396 eV
GCMC step 0: atoms=250, acceptance_rate=0.394
Deletion accepted: atom 147, ΔE=-0.434 eV
Deletion accepted: atom 135, ΔE=-0.296 eV
Deletion accepted: atom 240, ΔE=-0.324 eV
Deletion accepted: atom 169, ΔE=-0.269 eV
Deletion accepted: atom 143, ΔE=-0.464 eV
Deletion accepted: atom 144, ΔE=-0.490 eV
Deletion accepted: atom 213, ΔE=-0.178 eV
Deletion accepted: atom 168, ΔE=-0.199 eV
Deletion accepted: atom 219, ΔE=-0.690 eV
Deletion accepted: atom 138, ΔE=-0.505 eV
Deletion accepted: atom 168, ΔE=-0.199 eV
Deletion accepted: atom 169, ΔE=-0.269 eV
Deletion accepted: atom 226, ΔE=-0.265 eV
Deletion accepted: atom 222, ΔE=-0.366 eV
Deletion accepted: atom 163, ΔE=-0.190 eV
Deletion accepted: atom 151, ΔE=-0.363 eV
Deletion accepted: atom 164, ΔE=-0.516 eV
Deletion accepted: atom 157, ΔE=-0.347 eV
Deletion accepted: atom 143, ΔE=-0.464 eV
Deletion accepted: atom 151, ΔE=-0.363 eV
Deletion accepted: atom 145, ΔE=-0.518 eV
Deletion accepted: atom 125, ΔE=-0.359 eV
Deletion accepted: atom 164, ΔE=-0.516 eV
Deletion accepted: atom 183, ΔE=-0.000 eV
Deletion accepted: atom 237, ΔE=-0.410 eV
Deletion accepted: atom 241, ΔE=-0.234 eV
Deletion accepted: atom 235, ΔE=-0.298 eV
Deletion accepted: atom 197, ΔE=-0.421 eV
Deletion accepted: atom 229, ΔE=-0.400 eV
Deletion accepted: atom 131, ΔE=-0.327 eV
Deletion accepted: atom 142, ΔE=-0.351 eV
Deletion accepted: atom 198, ΔE=-0.053 eV
Deletion accepted: atom 127, ΔE=-0.276 eV
GCMC step 100: atoms=250, acceptance_rate=0.394
Deletion accepted: atom 129, ΔE=-0.490 eV
Deletion accepted: atom 216, ΔE=-0.207 eV
Deletion accepted: atom 178, ΔE=-0.143 eV
Deletion accepted: atom 242, ΔE=-0.001 eV
Deletion accepted: atom 176, ΔE=-0.261 eV
Deletion accepted: atom 186, ΔE=-0.204 eV
Deletion accepted: atom 181, ΔE=-0.432 eV
Deletion accepted: atom 219, ΔE=-0.690 eV
Deletion accepted: atom 139, ΔE=-0.409 eV
Deletion accepted: atom 148, ΔE=-0.615 eV
Deletion accepted: atom 177, ΔE=-0.545 eV
Deletion accepted: atom 217, ΔE=-0.215 eV
Deletion accepted: atom 197, ΔE=-0.421 eV
Deletion accepted: atom 143, ΔE=-0.464 eV
Deletion accepted: atom 126, ΔE=-0.423 eV
Deletion accepted: atom 148, ΔE=-0.615 eV
Deletion accepted: atom 238, ΔE=-0.316 eV
Deletion accepted: atom 178, ΔE=-0.143 eV
Deletion accepted: atom 204, ΔE=-0.418 eV
Deletion accepted: atom 181, ΔE=-0.432 eV
Deletion accepted: atom 177, ΔE=-0.545 eV
Deletion accepted: atom 222, ΔE=-0.366 eV
Deletion accepted: atom 229, ΔE=-0.400 eV
Deletion accepted: atom 145, ΔE=-0.518 eV
Deletion accepted: atom 156, ΔE=-0.184 eV
Deletion accepted: atom 178, ΔE=-0.143 eV
Deletion accepted: atom 197, ΔE=-0.421 eV
Deletion accepted: atom 176, ΔE=-0.261 eV
Deletion accepted: atom 134, ΔE=-0.140 eV
Deletion accepted: atom 201, ΔE=-0.153 eV
Deletion accepted: atom 205, ΔE=-0.432 eV
GCMC: MD step 980, acceptance ratio = 0.393878
GCMC: Final number of atoms = 250
GCMC: Running 200 MC steps at temperature 300 K
GCMC: Current number of atoms = 250
GCMC step 0: atoms=250, acceptance_rate=0.394
Deletion accepted: atom 212, ΔE=-0.599 eV
Deletion accepted: atom 222, ΔE=-0.366 eV
Deletion accepted: atom 163, ΔE=-0.190 eV
Deletion accepted: atom 126, ΔE=-0.423 eV
Deletion accepted: atom 248, ΔE=-0.145 eV
Deletion accepted: atom 191, ΔE=-0.187 eV
Deletion accepted: atom 169, ΔE=-0.269 eV
Deletion accepted: atom 165, ΔE=-0.297 eV
Deletion accepted: atom 205, ΔE=-0.432 eV
Deletion accepted: atom 221, ΔE=-0.112 eV
Deletion accepted: atom 191, ΔE=-0.187 eV
Deletion accepted: atom 208, ΔE=-0.197 eV
Deletion accepted: atom 141, ΔE=-0.271 eV
Deletion accepted: atom 176, ΔE=-0.261 eV
Deletion accepted: atom 126, ΔE=-0.423 eV
Deletion accepted: atom 137, ΔE=-0.540 eV
Deletion accepted: atom 171, ΔE=-0.343 eV
Deletion accepted: atom 151, ΔE=-0.363 eV
Deletion accepted: atom 191, ΔE=-0.186 eV
Deletion accepted: atom 242, ΔE=-0.001 eV
Deletion accepted: atom 229, ΔE=-0.400 eV
Deletion accepted: atom 208, ΔE=-0.197 eV
Deletion accepted: atom 137, ΔE=-0.540 eV
Deletion accepted: atom 213, ΔE=-0.178 eV
Deletion accepted: atom 205, ΔE=-0.432 eV
Deletion accepted: atom 172, ΔE=-0.414 eV
Deletion accepted: atom 217, ΔE=-0.215 eV
Deletion accepted: atom 159, ΔE=-0.580 eV
Deletion accepted: atom 217, ΔE=-0.215 eV
Deletion accepted: atom 182, ΔE=-0.449 eV
Deletion accepted: atom 191, ΔE=-0.186 eV
Deletion accepted: atom 224, ΔE=-0.535 eV
Deletion accepted: atom 231, ΔE=-0.390 eV
GCMC step 100: atoms=250, acceptance_rate=0.394
Deletion accepted: atom 242, ΔE=-0.001 eV
Deletion accepted: atom 153, ΔE=-0.271 eV
Deletion accepted: atom 144, ΔE=-0.490 eV
Deletion accepted: atom 143, ΔE=-0.464 eV
Deletion accepted: atom 135, ΔE=-0.296 eV
Deletion accepted: atom 248, ΔE=-0.145 eV
Deletion accepted: atom 195, ΔE=-0.512 eV
Deletion accepted: atom 154, ΔE=-0.421 eV
Deletion accepted: atom 150, ΔE=-0.377 eV
Deletion accepted: atom 194, ΔE=-0.425 eV
Deletion accepted: atom 170, ΔE=-0.634 eV
Deletion accepted: atom 177, ΔE=-0.456 eV
Deletion accepted: atom 212, ΔE=-0.595 eV
Deletion accepted: atom 218, ΔE=-0.077 eV
Deletion accepted: atom 225, ΔE=-0.123 eV
Deletion accepted: atom 211, ΔE=-0.288 eV
Deletion accepted: atom 229, ΔE=-0.400 eV
Deletion accepted: atom 142, ΔE=-0.350 eV
Deletion accepted: atom 150, ΔE=-0.377 eV
Deletion accepted: atom 204, ΔE=-0.418 eV
Deletion accepted: atom 184, ΔE=-0.252 eV
Deletion accepted: atom 155, ΔE=-0.309 eV
Deletion accepted: atom 174, ΔE=-0.406 eV
Deletion accepted: atom 191, ΔE=-0.186 eV
Deletion accepted: atom 180, ΔE=-0.522 eV
Deletion accepted: atom 125, ΔE=-0.369 eV
Deletion accepted: atom 148, ΔE=-0.615 eV
Deletion accepted: atom 180, ΔE=-0.522 eV
Deletion accepted: atom 138, ΔE=-0.505 eV
Deletion accepted: atom 239, ΔE=-0.561 eV
Deletion accepted: atom 145, ΔE=-0.518 eV
Deletion accepted: atom 164, ΔE=-0.516 eV
Deletion accepted: atom 228, ΔE=-0.059 eV
Deletion accepted: atom 155, ΔE=-0.309 eV
Deletion accepted: atom 198, ΔE=-0.053 eV
Deletion accepted: atom 140, ΔE=-0.428 eV
Deletion accepted: atom 183, ΔE=-0.000 eV
Deletion accepted: atom 191, ΔE=-0.186 eV
GCMC: MD step 990, acceptance ratio = 0.393788
GCMC: Final number of atoms = 250
GCMC: Running 200 MC steps at temperature 300 K
GCMC: Current number of atoms = 250
Deletion accepted: atom 228, ΔE=-0.059 eV
GCMC step 0: atoms=250, acceptance_rate=0.394
Deletion accepted: atom 177, ΔE=-0.456 eV
Deletion accepted: atom 151, ΔE=-0.346 eV
Deletion accepted: atom 226, ΔE=-0.265 eV
Deletion accepted: atom 150, ΔE=-0.377 eV
Deletion accepted: atom 180, ΔE=-0.522 eV
Deletion accepted: atom 206, ΔE=-0.335 eV
Deletion accepted: atom 245, ΔE=-0.455 eV
Deletion accepted: atom 143, ΔE=-0.464 eV
Deletion accepted: atom 213, ΔE=-0.178 eV
Deletion accepted: atom 137, ΔE=-0.540 eV
Deletion accepted: atom 222, ΔE=-0.366 eV
Deletion accepted: atom 179, ΔE=-0.456 eV
Deletion accepted: atom 140, ΔE=-0.428 eV
Deletion accepted: atom 133, ΔE=-0.115 eV
Deletion accepted: atom 164, ΔE=-0.516 eV
Deletion accepted: atom 243, ΔE=-0.155 eV
Deletion accepted: atom 183, ΔE=-0.000 eV
Deletion accepted: atom 207, ΔE=-0.275 eV
Deletion accepted: atom 237, ΔE=-0.409 eV
Deletion accepted: atom 125, ΔE=-0.369 eV
Deletion accepted: atom 130, ΔE=-0.409 eV
Deletion accepted: atom 237, ΔE=-0.409 eV
Deletion accepted: atom 149, ΔE=-0.177 eV
Deletion accepted: atom 203, ΔE=-0.188 eV
Deletion accepted: atom 168, ΔE=-0.199 eV
Deletion accepted: atom 142, ΔE=-0.350 eV
Deletion accepted: atom 181, ΔE=-0.432 eV
Deletion accepted: atom 157, ΔE=-0.347 eV
Deletion accepted: atom 169, ΔE=-0.269 eV
Deletion accepted: atom 184, ΔE=-0.252 eV
Deletion accepted: atom 232, ΔE=-0.367 eV
Deletion accepted: atom 135, ΔE=-0.296 eV
Deletion accepted: atom 149, ΔE=-0.120 eV
Deletion accepted: atom 197, ΔE=-0.423 eV
Deletion accepted: atom 134, ΔE=-0.141 eV
Deletion accepted: atom 232, ΔE=-0.367 eV
Deletion accepted: atom 139, ΔE=-0.410 eV
Deletion accepted: atom 222, ΔE=-0.366 eV
Deletion accepted: atom 188, ΔE=-0.276 eV
Deletion accepted: atom 143, ΔE=-0.464 eV
Deletion accepted: atom 155, ΔE=-0.309 eV
Deletion accepted: atom 187, ΔE=-0.357 eV
GCMC step 100: atoms=250, acceptance_rate=0.394
Deletion accepted: atom 127, ΔE=-0.276 eV
Deletion accepted: atom 216, ΔE=-0.207 eV
Deletion accepted: atom 224, ΔE=-0.535 eV
Deletion accepted: atom 138, ΔE=-0.505 eV
Deletion accepted: atom 233, ΔE=-0.250 eV
Deletion accepted: atom 219, ΔE=-0.682 eV
Deletion accepted: atom 131, ΔE=-0.324 eV
Deletion accepted: atom 194, ΔE=-0.425 eV
Deletion accepted: atom 219, ΔE=-0.682 eV
Deletion accepted: atom 161, ΔE=-0.311 eV
Deletion accepted: atom 125, ΔE=-0.354 eV
Deletion accepted: atom 175, ΔE=-0.257 eV
Deletion accepted: atom 152, ΔE=-0.633 eV
Deletion accepted: atom 236, ΔE=-0.200 eV
Deletion accepted: atom 173, ΔE=-0.110 eV
Deletion accepted: atom 137, ΔE=-0.540 eV
Deletion accepted: atom 226, ΔE=-0.265 eV
Deletion accepted: atom 214, ΔE=-0.601 eV
Deletion accepted: atom 189, ΔE=-0.708 eV
Deletion accepted: atom 173, ΔE=-0.110 eV
Deletion accepted: atom 178, ΔE=-0.143 eV
Deletion accepted: atom 247, ΔE=-0.016 eV
Deletion accepted: atom 218, ΔE=-0.063 eV
Deletion accepted: atom 194, ΔE=-0.425 eV
Deletion accepted: atom 235, ΔE=-0.298 eV
Deletion accepted: atom 216, ΔE=-0.207 eV
Deletion accepted: atom 228, ΔE=-0.059 eV
Deletion accepted: atom 244, ΔE=-0.278 eV
Deletion accepted: atom 127, ΔE=-0.276 eV
Deletion accepted: atom 215, ΔE=-0.303 eV
GCMC: MD step 1000, acceptance ratio = 0.3941
GCMC: Final number of atoms = 250
    1000 steps completed.

---------------------------------------------------------------
Time used for this run = 2.43836 second.
Speed of this run = 102528 atom*step/second.
---------------------------------------------------------------


---------------------------------------------------------------
Finished executing the commands in run.in.
---------------------------------------------------------------


---------------------------------------------------------------
Time used = 2.452952 s.
---------------------------------------------------------------


---------------------------------------------------------------
Finished running GPUMD.
---------------------------------------------------------------

