
***************************************************************
*                 Welcome to use GPUMD                        *
*     (Graphics Processing Units Molecular Dynamics)          *
*                     version 4.2                             *
*              This is the gpumd executable                   *
***************************************************************


---------------------------------------------------------------
Compiling options:
---------------------------------------------------------------

DEBUG is off: Use different PRNG seeds for different runs.

---------------------------------------------------------------
GPU information:
---------------------------------------------------------------

number of GPUs = 1
Device id:                   0
    Device name:             NVIDIA GeForce RTX 4060 Laptop GPU
    Compute capability:      8.9
    Amount of global memory: 7.99561 GB
    Number of SMs:           24

---------------------------------------------------------------
Started running GPUMD.
---------------------------------------------------------------


---------------------------------------------------------------
Started initializing positions and related parameters.
---------------------------------------------------------------

Number of atoms is 250.
Use periodic boundary conditions along x.
Use periodic boundary conditions along y.
Use periodic boundary conditions along z.
Box matrix h = [a, b, c] is
    0.0000000000e+00    1.6425982650e+01    1.6425982650e+01
    1.6425982650e+01    0.0000000000e+00    1.6425982650e+01
    1.6425982650e+01    1.6425982650e+01    0.0000000000e+00
Inverse box matrix g = inv(h) is
   -3.0439579211e-02    3.0439579211e-02    3.0439579211e-02
    3.0439579211e-02   -3.0439579211e-02    3.0439579211e-02
    3.0439579211e-02    3.0439579211e-02   -3.0439579211e-02
Do not specify initial velocities here.
Have 1 grouping method(s).
There is only one group of atoms in grouping method 0.
    250 atoms in group 0.
There are 2 atom types.
    125 atoms of type 0.
    125 atoms of type 1.
Initialized velocities with default T = 300 K.

---------------------------------------------------------------
Finished initializing positions and related parameters.
---------------------------------------------------------------


---------------------------------------------------------------
Started executing the commands in run.in.
---------------------------------------------------------------

Use the NEP4 potential with 2 atom types.
    type 0 (Te with Z = 52).
    type 1 (Pb with Z = 82).
    radial cutoff = 8 A.
    angular cutoff = 4 A.
    MN_radial = 73.
    enlarged MN_radial = 92.
    enlarged MN_angular = 10.
    n_max_radial = 4.
    n_max_angular = 4.
    basis_size_radial = 8.
    basis_size_angular = 8.
    l_max_3body = 4.
    l_max_4body = 2.
    l_max_5body = 0.
    ANN = 30-30-1.
    number of neural network parameters = 1921.
    number of descriptor parameters = 360.
    total number of parameters = 2281.
Initialized velocities with input T = 300 K.
Use NVT ensemble for this run.
    choose the Langevin method.
    initial temperature is 300 K.
    final temperature is 300 K.
    tau_T is 100 time_step.
Time step for this run is 1 fs.
Perform GCMC MCMD:
    after every 1 MD steps, do 100 MC trials.
    with an initial temperature of 300 K and a final temperature of 300 K.
    number of species involved in GCMC = 1.
        species = Pb, mu = -2 eV
    maximum displacement distance = 1 Angstrom.
    the initial system or specified group has:
        125 Pb atoms.
    Use the NEP4 potential with 2 atom types.
        type 0 (Te with Z = 52).
        type 1 (Pb with Z = 82).
        radial cutoff = 8 A.
        angular cutoff = 4 A.
        MN_radial = 73.
        MN_angular = 8.
        enlarged MN_radial = 92.
        enlarged MN_angular = 10.
        n_max_radial = 4.
        n_max_angular = 4.
        basis_size_radial = 8.
        basis_size_angular = 8.
        l_max_3body = 4.
        l_max_4body = 2.
        l_max_5body = 0.
        ANN = 30-30-1.
        number of neural network parameters = 1921.
        number of descriptor parameters = 360.
        total number of parameters = 2281.
  Species Pb: mass = 207.2 amu, lambda = 4.37053e+17 Å, zz = 3.01909e-87
GCMC ensemble initialized with 1 species
  Species Pb (type 1): mu = -2.0000 eV, zz = 3.01909e-87
Run 100 steps.
GCMC: Running 100 MC steps at temperature 300 K
GCMC: Current number of atoms = 250
GCMC step 0: atoms=250, acceptance_rate=0.000
Deletion accepted: atom 166, ΔE=-0.000 eV
Deletion accepted: atom 231, ΔE=-0.010 eV
Deletion accepted: atom 190, ΔE=2.007 eV
Deletion accepted: atom 169, ΔE=-0.900 eV
GCMC: MD step 2, acceptance ratio = 0.37
GCMC: Final number of atoms = 250
GCMC: Running 100 MC steps at temperature 300 K
GCMC: Current number of atoms = 250
GCMC step 0: atoms=250, acceptance_rate=0.376
Deletion accepted: atom 176, ΔE=-0.187 eV
Deletion accepted: atom 231, ΔE=-0.011 eV
Deletion accepted: atom 224, ΔE=-0.132 eV
Deletion accepted: atom 126, ΔE=-0.653 eV
Deletion accepted: atom 169, ΔE=-0.789 eV
Deletion accepted: atom 243, ΔE=0.281 eV
GCMC: MD step 3, acceptance ratio = 0.335
GCMC: Final number of atoms = 250
GCMC: Running 100 MC steps at temperature 300 K
GCMC: Current number of atoms = 250
GCMC step 0: atoms=250, acceptance_rate=0.333
Deletion accepted: atom 218, ΔE=-0.013 eV
Deletion accepted: atom 176, ΔE=-0.187 eV
Deletion accepted: atom 190, ΔE=3.106 eV
Deletion accepted: atom 143, ΔE=-0.174 eV
Deletion accepted: atom 247, ΔE=-0.875 eV
GCMC: MD step 4, acceptance ratio = 0.32
GCMC: Final number of atoms = 250
GCMC: Running 100 MC steps at temperature 300 K
GCMC: Current number of atoms = 250
GCMC step 0: atoms=250, acceptance_rate=0.319
Deletion accepted: atom 196, ΔE=-0.060 eV
Deletion accepted: atom 218, ΔE=-0.017 eV
Deletion accepted: atom 143, ΔE=-0.154 eV
Deletion accepted: atom 176, ΔE=-0.168 eV
Deletion accepted: atom 176, ΔE=-0.168 eV
Deletion accepted: atom 164, ΔE=-0.212 eV
Deletion accepted: atom 166, ΔE=-0.000 eV
Deletion accepted: atom 233, ΔE=-0.013 eV
Deletion accepted: atom 227, ΔE=4.026 eV
Deletion accepted: atom 166, ΔE=-0.000 eV
Deletion accepted: atom 231, ΔE=-0.013 eV
Deletion accepted: atom 226, ΔE=-0.009 eV
GCMC: MD step 5, acceptance ratio = 0.34
GCMC: Final number of atoms = 250
GCMC: Running 100 MC steps at temperature 300 K
GCMC: Current number of atoms = 250
GCMC step 0: atoms=250, acceptance_rate=0.339
Deletion accepted: atom 176, ΔE=-0.168 eV
Deletion accepted: atom 148, ΔE=-0.385 eV
Deletion accepted: atom 246, ΔE=2.354 eV
Deletion accepted: atom 211, ΔE=0.328 eV
Deletion accepted: atom 173, ΔE=-0.170 eV
GCMC: MD step 6, acceptance ratio = 0.33
GCMC: Final number of atoms = 250
GCMC: Running 100 MC steps at temperature 300 K
GCMC: Current number of atoms = 250
GCMC step 0: atoms=250, acceptance_rate=0.329
Deletion accepted: atom 166, ΔE=-0.000 eV
Deletion accepted: atom 167, ΔE=0.526 eV
Deletion accepted: atom 196, ΔE=-0.090 eV
Deletion accepted: atom 243, ΔE=0.281 eV
Deletion accepted: atom 209, ΔE=-0.316 eV
Deletion accepted: atom 226, ΔE=-0.010 eV
GCMC: MD step 7, acceptance ratio = 0.316667
GCMC: Final number of atoms = 250
GCMC: Running 100 MC steps at temperature 300 K
GCMC: Current number of atoms = 250
GCMC step 0: atoms=250, acceptance_rate=0.316
Deletion accepted: atom 221, ΔE=-0.083 eV
Deletion accepted: atom 226, ΔE=-0.010 eV
Deletion accepted: atom 233, ΔE=-0.004 eV
Deletion accepted: atom 198, ΔE=-0.072 eV
Deletion accepted: atom 186, ΔE=2.341 eV
Deletion accepted: atom 164, ΔE=-0.253 eV
Deletion accepted: atom 173, ΔE=-0.170 eV
Deletion accepted: atom 171, ΔE=-0.088 eV
Deletion accepted: atom 198, ΔE=-0.072 eV
Deletion accepted: atom 143, ΔE=-0.290 eV
Deletion accepted: atom 146, ΔE=0.544 eV
Deletion accepted: atom 227, ΔE=3.842 eV
Deletion accepted: atom 143, ΔE=-0.290 eV
GCMC: MD step 8, acceptance ratio = 0.318571
GCMC: Final number of atoms = 250
GCMC: Running 100 MC steps at temperature 300 K
GCMC: Current number of atoms = 250
GCMC step 0: atoms=250, acceptance_rate=0.320
Deletion accepted: atom 231, ΔE=-0.014 eV
Deletion accepted: atom 146, ΔE=0.544 eV
Deletion accepted: atom 209, ΔE=-0.225 eV
Deletion accepted: atom 237, ΔE=-0.758 eV
Deletion accepted: atom 243, ΔE=0.281 eV
Deletion accepted: atom 196, ΔE=-0.091 eV
Deletion accepted: atom 210, ΔE=-0.518 eV
Deletion accepted: atom 203, ΔE=-0.059 eV
Deletion accepted: atom 173, ΔE=-0.170 eV
Deletion accepted: atom 243, ΔE=0.281 eV
Deletion accepted: atom 243, ΔE=0.281 eV
Deletion accepted: atom 152, ΔE=-0.543 eV
Deletion accepted: atom 209, ΔE=-0.225 eV
Deletion accepted: atom 243, ΔE=0.281 eV
Deletion accepted: atom 228, ΔE=0.982 eV
GCMC: MD step 9, acceptance ratio = 0.33
GCMC: Final number of atoms = 250
GCMC: Running 100 MC steps at temperature 300 K
GCMC: Current number of atoms = 250
GCMC step 0: atoms=250, acceptance_rate=0.330
Deletion accepted: atom 198, ΔE=-0.072 eV
Deletion accepted: atom 145, ΔE=-0.338 eV
Deletion accepted: atom 128, ΔE=-0.125 eV
Deletion accepted: atom 227, ΔE=3.864 eV
Deletion accepted: atom 246, ΔE=2.354 eV
Deletion accepted: atom 165, ΔE=-0.216 eV
Deletion accepted: atom 201, ΔE=-0.207 eV
Deletion accepted: atom 243, ΔE=0.281 eV
Deletion accepted: atom 211, ΔE=0.400 eV
Deletion accepted: atom 180, ΔE=-0.629 eV
Deletion accepted: atom 186, ΔE=2.341 eV
Deletion accepted: atom 165, ΔE=-0.216 eV
Deletion accepted: atom 220, ΔE=1.945 eV
Deletion accepted: atom 223, ΔE=-0.187 eV
Deletion accepted: atom 220, ΔE=1.653 eV
Deletion accepted: atom 231, ΔE=-0.014 eV
Deletion accepted: atom 191, ΔE=-0.002 eV
Deletion accepted: atom 227, ΔE=-0.360 eV
Deletion accepted: atom 226, ΔE=-0.004 eV
GCMC: MD step 10, acceptance ratio = 0.338889
GCMC: Final number of atoms = 250
GCMC: Running 100 MC steps at temperature 300 K
GCMC: Current number of atoms = 250
GCMC step 0: atoms=250, acceptance_rate=0.339
Deletion accepted: atom 221, ΔE=-0.084 eV
Deletion accepted: atom 201, ΔE=-0.174 eV
Deletion accepted: atom 188, ΔE=-0.032 eV
Deletion accepted: atom 231, ΔE=-0.014 eV
Deletion accepted: atom 226, ΔE=-0.004 eV
Deletion accepted: atom 241, ΔE=-0.200 eV
Deletion accepted: atom 243, ΔE=0.281 eV
Deletion accepted: atom 237, ΔE=-0.689 eV
Deletion accepted: atom 179, ΔE=-0.391 eV
Deletion accepted: atom 164, ΔE=-0.254 eV
Deletion accepted: atom 246, ΔE=2.354 eV
Deletion accepted: atom 147, ΔE=0.131 eV
Deletion accepted: atom 157, ΔE=1.857 eV
Deletion accepted: atom 147, ΔE=0.131 eV
GCMC: MD step 11, acceptance ratio = 0.338
GCMC: Final number of atoms = 250
    10 steps completed.
GCMC: Running 100 MC steps at temperature 300 K
GCMC: Current number of atoms = 250
Deletion accepted: atom 186, ΔE=2.341 eV
GCMC step 0: atoms=250, acceptance_rate=0.339
Deletion accepted: atom 225, ΔE=-0.102 eV
Deletion accepted: atom 243, ΔE=0.281 eV
Deletion accepted: atom 248, ΔE=-0.092 eV
Deletion accepted: atom 145, ΔE=-0.226 eV
Deletion accepted: atom 188, ΔE=-0.033 eV
Deletion accepted: atom 199, ΔE=-0.276 eV
Deletion accepted: atom 201, ΔE=-0.174 eV
Deletion accepted: atom 203, ΔE=-0.060 eV
Deletion accepted: atom 210, ΔE=-0.472 eV
Deletion accepted: atom 206, ΔE=-0.157 eV
Deletion accepted: atom 231, ΔE=-0.013 eV
Deletion accepted: atom 146, ΔE=1.969 eV
Deletion accepted: atom 218, ΔE=-0.040 eV
Deletion accepted: atom 233, ΔE=-0.007 eV
Deletion accepted: atom 230, ΔE=-0.227 eV
Deletion accepted: atom 152, ΔE=-0.352 eV
Deletion accepted: atom 201, ΔE=-0.174 eV
GCMC: MD step 12, acceptance ratio = 0.340909
GCMC: Final number of atoms = 250
GCMC: Running 100 MC steps at temperature 300 K
GCMC: Current number of atoms = 250
GCMC step 0: atoms=250, acceptance_rate=0.341
Deletion accepted: atom 221, ΔE=-0.084 eV
Deletion accepted: atom 190, ΔE=1.447 eV
Deletion accepted: atom 209, ΔE=-0.204 eV
Deletion accepted: atom 186, ΔE=2.341 eV
Deletion accepted: atom 248, ΔE=-0.092 eV
Deletion accepted: atom 188, ΔE=-0.033 eV
Deletion accepted: atom 198, ΔE=-0.082 eV
Deletion accepted: atom 145, ΔE=-0.226 eV
Deletion accepted: atom 157, ΔE=1.836 eV
Deletion accepted: atom 149, ΔE=2.425 eV
Deletion accepted: atom 164, ΔE=-0.226 eV
Deletion accepted: atom 233, ΔE=-0.007 eV
Deletion accepted: atom 236, ΔE=-0.357 eV
Deletion accepted: atom 198, ΔE=-0.082 eV
Deletion accepted: atom 125, ΔE=0.615 eV
Deletion accepted: atom 236, ΔE=-0.357 eV
Deletion accepted: atom 248, ΔE=-0.092 eV
GCMC: MD step 13, acceptance ratio = 0.3375
GCMC: Final number of atoms = 250
GCMC: Running 100 MC steps at temperature 300 K
GCMC: Current number of atoms = 250
GCMC step 0: atoms=250, acceptance_rate=0.338
Deletion accepted: atom 157, ΔE=1.850 eV
Deletion accepted: atom 158, ΔE=-0.143 eV
Deletion accepted: atom 223, ΔE=-0.181 eV
Deletion accepted: atom 211, ΔE=-0.023 eV
Deletion accepted: atom 204, ΔE=-0.171 eV
Deletion accepted: atom 146, ΔE=0.693 eV
Deletion accepted: atom 125, ΔE=-0.044 eV
Deletion accepted: atom 129, ΔE=0.201 eV
Deletion accepted: atom 214, ΔE=-0.071 eV
Deletion accepted: atom 236, ΔE=0.021 eV
Deletion accepted: atom 145, ΔE=-0.218 eV
Deletion accepted: atom 151, ΔE=4.047 eV
Deletion accepted: atom 158, ΔE=-0.141 eV
Deletion accepted: atom 198, ΔE=-0.082 eV
Deletion accepted: atom 186, ΔE=-0.033 eV
Deletion accepted: atom 145, ΔE=-0.218 eV
Deletion accepted: atom 137, ΔE=0.730 eV
GCMC: MD step 14, acceptance ratio = 0.336154
GCMC: Final number of atoms = 250
GCMC: Running 100 MC steps at temperature 300 K
GCMC: Current number of atoms = 250
GCMC step 0: atoms=250, acceptance_rate=0.336
Deletion accepted: atom 223, ΔE=-0.180 eV
Deletion accepted: atom 148, ΔE=-0.371 eV
Deletion accepted: atom 160, ΔE=0.413 eV
Deletion accepted: atom 201, ΔE=4.297 eV
Deletion accepted: atom 195, ΔE=-0.059 eV
Deletion accepted: atom 164, ΔE=-0.268 eV
Deletion accepted: atom 237, ΔE=0.075 eV
Deletion accepted: atom 198, ΔE=-0.082 eV
Deletion accepted: atom 155, ΔE=-0.207 eV
Deletion accepted: atom 204, ΔE=-0.170 eV
Deletion accepted: atom 164, ΔE=-0.268 eV
Deletion accepted: atom 190, ΔE=-0.163 eV
Deletion accepted: atom 171, ΔE=-0.096 eV
Deletion accepted: atom 157, ΔE=1.869 eV
Deletion accepted: atom 243, ΔE=0.281 eV
Deletion accepted: atom 141, ΔE=-0.183 eV
Deletion accepted: atom 241, ΔE=-0.199 eV
Deletion accepted: atom 241, ΔE=-0.199 eV
Deletion accepted: atom 139, ΔE=-0.186 eV
Deletion accepted: atom 179, ΔE=-0.333 eV
Deletion accepted: atom 242, ΔE=-0.495 eV
Deletion accepted: atom 158, ΔE=-0.141 eV
GCMC: MD step 15, acceptance ratio = 0.341429
GCMC: Final number of atoms = 250
GCMC: Running 100 MC steps at temperature 300 K
GCMC: Current number of atoms = 250
GCMC step 0: atoms=250, acceptance_rate=0.341
Deletion accepted: atom 241, ΔE=-0.200 eV
Deletion accepted: atom 214, ΔE=-0.077 eV
Deletion accepted: atom 132, ΔE=-0.201 eV
Deletion accepted: atom 180, ΔE=-0.351 eV
Deletion accepted: atom 217, ΔE=4.001 eV
Deletion accepted: atom 233, ΔE=-0.014 eV
Deletion accepted: atom 191, ΔE=-0.008 eV
Deletion accepted: atom 186, ΔE=-0.033 eV
Deletion accepted: atom 158, ΔE=-0.145 eV
Deletion accepted: atom 148, ΔE=-0.416 eV
Deletion accepted: atom 229, ΔE=-0.450 eV
Deletion accepted: atom 215, ΔE=-0.349 eV
Deletion accepted: atom 214, ΔE=-0.077 eV
Deletion accepted: atom 226, ΔE=-0.013 eV
Deletion accepted: atom 231, ΔE=-0.050 eV
Deletion accepted: atom 151, ΔE=4.049 eV
Deletion accepted: atom 180, ΔE=-0.351 eV
Deletion accepted: atom 221, ΔE=-0.091 eV
Deletion accepted: atom 146, ΔE=-0.307 eV
Deletion accepted: atom 183, ΔE=-0.146 eV
Deletion accepted: atom 237, ΔE=0.092 eV
Deletion accepted: atom 201, ΔE=4.352 eV
Deletion accepted: atom 220, ΔE=1.721 eV
Deletion accepted: atom 213, ΔE=-0.133 eV
Deletion accepted: atom 229, ΔE=-0.450 eV
Deletion accepted: atom 196, ΔE=-0.043 eV
GCMC: MD step 16, acceptance ratio = 0.345333
GCMC: Final number of atoms = 250
GCMC: Running 100 MC steps at temperature 300 K
GCMC: Current number of atoms = 250
GCMC step 0: atoms=250, acceptance_rate=0.346
Deletion accepted: atom 198, ΔE=-0.082 eV
Deletion accepted: atom 126, ΔE=-0.237 eV
Deletion accepted: atom 160, ΔE=-0.236 eV
Deletion accepted: atom 146, ΔE=-0.348 eV
Deletion accepted: atom 238, ΔE=-0.059 eV
Deletion accepted: atom 217, ΔE=4.001 eV
Deletion accepted: atom 196, ΔE=-0.043 eV
Deletion accepted: atom 211, ΔE=-0.151 eV
Deletion accepted: atom 205, ΔE=0.521 eV
Deletion accepted: atom 229, ΔE=-0.453 eV
Deletion accepted: atom 149, ΔE=0.652 eV
Deletion accepted: atom 225, ΔE=-0.102 eV
Deletion accepted: atom 218, ΔE=-0.051 eV
Deletion accepted: atom 204, ΔE=-0.197 eV
Deletion accepted: atom 151, ΔE=-0.357 eV
Deletion accepted: atom 178, ΔE=-0.088 eV
Deletion accepted: atom 225, ΔE=-0.102 eV
Deletion accepted: atom 133, ΔE=0.237 eV
Deletion accepted: atom 157, ΔE=-0.469 eV
Deletion accepted: atom 245, ΔE=-0.297 eV
Deletion accepted: atom 213, ΔE=-0.134 eV
Deletion accepted: atom 245, ΔE=-0.297 eV
Deletion accepted: atom 186, ΔE=-0.033 eV
Deletion accepted: atom 206, ΔE=-0.157 eV
Deletion accepted: atom 220, ΔE=1.696 eV
GCMC: MD step 17, acceptance ratio = 0.346875
GCMC: Final number of atoms = 250
GCMC: Running 100 MC steps at temperature 300 K
GCMC: Current number of atoms = 250
GCMC step 0: atoms=250, acceptance_rate=0.347
Deletion accepted: atom 213, ΔE=-0.134 eV
Deletion accepted: atom 190, ΔE=-0.137 eV
Deletion accepted: atom 217, ΔE=4.001 eV
Deletion accepted: atom 145, ΔE=0.022 eV
Deletion accepted: atom 233, ΔE=-0.016 eV
Deletion accepted: atom 237, ΔE=-0.290 eV
Deletion accepted: atom 169, ΔE=1.074 eV
Deletion accepted: atom 198, ΔE=-0.083 eV
Deletion accepted: atom 230, ΔE=-0.226 eV
Deletion accepted: atom 171, ΔE=-0.096 eV
Deletion accepted: atom 231, ΔE=-0.051 eV
Deletion accepted: atom 231, ΔE=-0.051 eV
Deletion accepted: atom 223, ΔE=4.050 eV
Deletion accepted: atom 202, ΔE=-0.303 eV
Deletion accepted: atom 173, ΔE=-0.179 eV
Deletion accepted: atom 229, ΔE=-0.447 eV
Deletion accepted: atom 143, ΔE=-0.300 eV
Deletion accepted: atom 164, ΔE=-0.263 eV
Deletion accepted: atom 245, ΔE=-0.311 eV
Deletion accepted: atom 210, ΔE=-0.435 eV
GCMC: MD step 18, acceptance ratio = 0.347059
GCMC: Final number of atoms = 250
GCMC: Running 100 MC steps at temperature 300 K
GCMC: Current number of atoms = 250
GCMC step 0: atoms=250, acceptance_rate=0.347
Deletion accepted: atom 171, ΔE=-0.096 eV
Deletion accepted: atom 143, ΔE=-0.300 eV
Deletion accepted: atom 184, ΔE=-0.371 eV
Deletion accepted: atom 151, ΔE=-0.351 eV
Deletion accepted: atom 142, ΔE=-0.109 eV
Deletion accepted: atom 184, ΔE=-0.371 eV
Deletion accepted: atom 160, ΔE=-0.236 eV
Deletion accepted: atom 155, ΔE=-0.207 eV
Deletion accepted: atom 192, ΔE=1.123 eV
Deletion accepted: atom 178, ΔE=-0.052 eV
Deletion accepted: atom 141, ΔE=-0.192 eV
Deletion accepted: atom 148, ΔE=-0.418 eV
Deletion accepted: atom 238, ΔE=-0.059 eV
Deletion accepted: atom 201, ΔE=4.336 eV
Deletion accepted: atom 128, ΔE=-0.123 eV
Deletion accepted: atom 204, ΔE=-0.146 eV
Deletion accepted: atom 132, ΔE=-0.198 eV
Deletion accepted: atom 176, ΔE=-0.204 eV
Deletion accepted: atom 205, ΔE=0.707 eV
Deletion accepted: atom 139, ΔE=-0.149 eV
Deletion accepted: atom 128, ΔE=-0.123 eV
Deletion accepted: atom 246, ΔE=-0.012 eV
Deletion accepted: atom 186, ΔE=-0.033 eV
Deletion accepted: atom 164, ΔE=-0.261 eV
GCMC: MD step 19, acceptance ratio = 0.348889
GCMC: Final number of atoms = 250
GCMC: Running 100 MC steps at temperature 300 K
GCMC: Current number of atoms = 250
GCMC step 0: atoms=250, acceptance_rate=0.349
Deletion accepted: atom 227, ΔE=-0.254 eV
Deletion accepted: atom 229, ΔE=-0.447 eV
Deletion accepted: atom 190, ΔE=-0.135 eV
Deletion accepted: atom 141, ΔE=-0.192 eV
Deletion accepted: atom 243, ΔE=-0.030 eV
Deletion accepted: atom 205, ΔE=0.709 eV
Deletion accepted: atom 237, ΔE=-0.458 eV
Deletion accepted: atom 165, ΔE=-0.134 eV
Deletion accepted: atom 151, ΔE=-0.314 eV
Deletion accepted: atom 204, ΔE=-0.146 eV
Deletion accepted: atom 196, ΔE=-0.009 eV
Deletion accepted: atom 142, ΔE=-0.124 eV
Deletion accepted: atom 166, ΔE=-0.001 eV
Deletion accepted: atom 190, ΔE=-0.135 eV
Deletion accepted: atom 175, ΔE=-0.287 eV
Deletion accepted: atom 137, ΔE=0.752 eV
Deletion accepted: atom 225, ΔE=-0.102 eV
Deletion accepted: atom 236, ΔE=-0.155 eV
Deletion accepted: atom 248, ΔE=-0.093 eV
GCMC: MD step 20, acceptance ratio = 0.348421
GCMC: Final number of atoms = 250
GCMC: Running 100 MC steps at temperature 300 K
GCMC: Current number of atoms = 250
GCMC step 0: atoms=250, acceptance_rate=0.348
Deletion accepted: atom 213, ΔE=-0.134 eV
Deletion accepted: atom 227, ΔE=-0.253 eV
Deletion accepted: atom 178, ΔE=-0.052 eV
Deletion accepted: atom 196, ΔE=-0.009 eV
Deletion accepted: atom 215, ΔE=-0.347 eV
Deletion accepted: atom 158, ΔE=-0.144 eV
Deletion accepted: atom 151, ΔE=-0.313 eV
Deletion accepted: atom 151, ΔE=-0.313 eV
Deletion accepted: atom 155, ΔE=-0.166 eV
Deletion accepted: atom 195, ΔE=-0.098 eV
Deletion accepted: atom 166, ΔE=-0.001 eV
Deletion accepted: atom 238, ΔE=-0.093 eV
Deletion accepted: atom 139, ΔE=-0.216 eV
Deletion accepted: atom 184, ΔE=-0.370 eV
Deletion accepted: atom 138, ΔE=2.881 eV
Deletion accepted: atom 137, ΔE=0.765 eV
Deletion accepted: atom 190, ΔE=-0.135 eV
Deletion accepted: atom 157, ΔE=-0.440 eV
Deletion accepted: atom 126, ΔE=-0.170 eV
Deletion accepted: atom 190, ΔE=-0.135 eV
Deletion accepted: atom 213, ΔE=-0.135 eV
Deletion accepted: atom 229, ΔE=-0.446 eV
Deletion accepted: atom 160, ΔE=-0.235 eV
Deletion accepted: atom 194, ΔE=-0.068 eV
Deletion accepted: atom 198, ΔE=-0.084 eV
GCMC: MD step 21, acceptance ratio = 0.3495
GCMC: Final number of atoms = 250
    20 steps completed.
GCMC: Running 100 MC steps at temperature 300 K
GCMC: Current number of atoms = 250
GCMC step 0: atoms=250, acceptance_rate=0.349
Deletion accepted: atom 173, ΔE=-0.182 eV
Deletion accepted: atom 223, ΔE=4.073 eV
Deletion accepted: atom 169, ΔE=1.076 eV
Deletion accepted: atom 132, ΔE=-0.199 eV
Deletion accepted: atom 180, ΔE=-0.298 eV
Deletion accepted: atom 213, ΔE=-0.135 eV
Deletion accepted: atom 210, ΔE=-0.488 eV
Deletion accepted: atom 198, ΔE=-0.084 eV
Deletion accepted: atom 210, ΔE=-0.488 eV
Deletion accepted: atom 248, ΔE=-0.093 eV
Deletion accepted: atom 231, ΔE=-0.054 eV
Deletion accepted: atom 164, ΔE=2.857 eV
Deletion accepted: atom 164, ΔE=2.857 eV
Deletion accepted: atom 246, ΔE=-0.012 eV
Deletion accepted: atom 130, ΔE=-0.157 eV
Deletion accepted: atom 211, ΔE=-0.165 eV
Deletion accepted: atom 242, ΔE=-0.434 eV
Deletion accepted: atom 204, ΔE=-0.136 eV
Deletion accepted: atom 132, ΔE=-0.199 eV
Deletion accepted: atom 205, ΔE=0.712 eV
Deletion accepted: atom 195, ΔE=-0.098 eV
Deletion accepted: atom 196, ΔE=-0.010 eV
Deletion accepted: atom 201, ΔE=-0.251 eV
Deletion accepted: atom 176, ΔE=-0.135 eV
Deletion accepted: atom 133, ΔE=-0.113 eV
Deletion accepted: atom 220, ΔE=1.713 eV
Deletion accepted: atom 190, ΔE=-0.166 eV
Deletion accepted: atom 243, ΔE=-0.030 eV
Deletion accepted: atom 227, ΔE=-0.259 eV
Deletion accepted: atom 126, ΔE=-0.166 eV
Deletion accepted: atom 158, ΔE=-0.144 eV
Deletion accepted: atom 206, ΔE=-0.153 eV
Deletion accepted: atom 157, ΔE=-0.437 eV
Deletion accepted: atom 152, ΔE=-0.675 eV
Deletion accepted: atom 190, ΔE=-0.166 eV
Deletion accepted: atom 221, ΔE=-0.090 eV
Deletion accepted: atom 139, ΔE=-0.216 eV
Deletion accepted: atom 141, ΔE=-0.231 eV
GCMC: MD step 22, acceptance ratio = 0.35619
GCMC: Final number of atoms = 250
GCMC: Running 100 MC steps at temperature 300 K
GCMC: Current number of atoms = 250
GCMC step 0: atoms=250, acceptance_rate=0.356
Deletion accepted: atom 181, ΔE=-0.279 eV
Deletion accepted: atom 232, ΔE=-0.359 eV
Deletion accepted: atom 244, ΔE=4.046 eV
Deletion accepted: atom 188, ΔE=-0.042 eV
Deletion accepted: atom 202, ΔE=-0.365 eV
Deletion accepted: atom 244, ΔE=4.046 eV
Deletion accepted: atom 154, ΔE=2.810 eV
Deletion accepted: atom 203, ΔE=-0.137 eV
Deletion accepted: atom 233, ΔE=-0.018 eV
Deletion accepted: atom 202, ΔE=-0.365 eV
Deletion accepted: atom 168, ΔE=0.928 eV
Deletion accepted: atom 202, ΔE=-0.365 eV
Deletion accepted: atom 178, ΔE=-0.052 eV
Deletion accepted: atom 199, ΔE=-0.251 eV
Deletion accepted: atom 169, ΔE=1.084 eV
Deletion accepted: atom 210, ΔE=-0.559 eV
Deletion accepted: atom 223, ΔE=4.087 eV
Deletion accepted: atom 179, ΔE=-0.243 eV
Deletion accepted: atom 184, ΔE=-0.327 eV
Deletion accepted: atom 196, ΔE=-0.010 eV
Deletion accepted: atom 228, ΔE=1.026 eV
Deletion accepted: atom 223, ΔE=4.087 eV
Deletion accepted: atom 183, ΔE=-0.096 eV
GCMC: MD step 23, acceptance ratio = 0.357727
GCMC: Final number of atoms = 250
GCMC: Running 100 MC steps at temperature 300 K
GCMC: Current number of atoms = 250
GCMC step 0: atoms=250, acceptance_rate=0.358
Deletion accepted: atom 181, ΔE=-0.279 eV
Deletion accepted: atom 137, ΔE=-0.253 eV
Deletion accepted: atom 178, ΔE=-0.052 eV
Deletion accepted: atom 178, ΔE=-0.052 eV
Deletion accepted: atom 152, ΔE=-0.634 eV
Deletion accepted: atom 155, ΔE=-0.166 eV
Deletion accepted: atom 192, ΔE=0.360 eV
Deletion accepted: atom 178, ΔE=-0.052 eV
Deletion accepted: atom 209, ΔE=-0.153 eV
Deletion accepted: atom 206, ΔE=-0.153 eV
Deletion accepted: atom 199, ΔE=-0.251 eV
Deletion accepted: atom 190, ΔE=-0.165 eV
Deletion accepted: atom 193, ΔE=-0.198 eV
Deletion accepted: atom 129, ΔE=0.204 eV
Deletion accepted: atom 218, ΔE=-0.066 eV
Deletion accepted: atom 167, ΔE=0.190 eV
Deletion accepted: atom 199, ΔE=-0.251 eV
Deletion accepted: atom 187, ΔE=1.752 eV
Deletion accepted: atom 142, ΔE=-0.123 eV
Deletion accepted: atom 163, ΔE=-0.244 eV
Deletion accepted: atom 130, ΔE=-0.157 eV
Deletion accepted: atom 137, ΔE=-0.251 eV
Deletion accepted: atom 199, ΔE=-0.251 eV
Deletion accepted: atom 188, ΔE=-0.050 eV
Deletion accepted: atom 152, ΔE=-0.635 eV
Deletion accepted: atom 175, ΔE=-0.240 eV
Deletion accepted: atom 162, ΔE=-0.408 eV
GCMC: MD step 24, acceptance ratio = 0.360435
GCMC: Final number of atoms = 250
GCMC: Running 100 MC steps at temperature 300 K
GCMC: Current number of atoms = 250
Deletion accepted: atom 180, ΔE=-0.310 eV
GCMC step 0: atoms=250, acceptance_rate=0.361
Deletion accepted: atom 215, ΔE=-0.385 eV
Deletion accepted: atom 206, ΔE=-0.153 eV
Deletion accepted: atom 220, ΔE=1.713 eV
Deletion accepted: atom 180, ΔE=-0.310 eV
Deletion accepted: atom 209, ΔE=-0.153 eV
Deletion accepted: atom 218, ΔE=-0.067 eV
Deletion accepted: atom 205, ΔE=0.713 eV
Deletion accepted: atom 126, ΔE=-0.163 eV
Deletion accepted: atom 173, ΔE=-0.182 eV
Deletion accepted: atom 230, ΔE=-0.173 eV
Deletion accepted: atom 202, ΔE=-0.277 eV
Deletion accepted: atom 151, ΔE=-0.199 eV
Deletion accepted: atom 186, ΔE=-0.033 eV
Deletion accepted: atom 167, ΔE=0.108 eV
Deletion accepted: atom 130, ΔE=-0.157 eV
Deletion accepted: atom 236, ΔE=-0.156 eV
Deletion accepted: atom 243, ΔE=-0.034 eV
Deletion accepted: atom 149, ΔE=0.676 eV
Deletion accepted: atom 233, ΔE=-0.016 eV
Deletion accepted: atom 158, ΔE=-0.129 eV
Deletion accepted: atom 210, ΔE=-0.559 eV
Deletion accepted: atom 192, ΔE=0.348 eV
Deletion accepted: atom 188, ΔE=-0.050 eV
Deletion accepted: atom 176, ΔE=-0.135 eV
Deletion accepted: atom 249, ΔE=-0.301 eV
Deletion accepted: atom 149, ΔE=0.676 eV
Deletion accepted: atom 204, ΔE=-0.070 eV
Deletion accepted: atom 176, ΔE=-0.135 eV
GCMC: MD step 25, acceptance ratio = 0.36125
GCMC: Final number of atoms = 250
GCMC: Running 100 MC steps at temperature 300 K
GCMC: Current number of atoms = 250
GCMC step 0: atoms=250, acceptance_rate=0.361
Deletion accepted: atom 204, ΔE=-0.070 eV
Deletion accepted: atom 173, ΔE=-0.182 eV
Deletion accepted: atom 216, ΔE=-0.188 eV
Deletion accepted: atom 145, ΔE=-0.110 eV
Deletion accepted: atom 190, ΔE=-0.179 eV
Deletion accepted: atom 218, ΔE=-0.067 eV
Deletion accepted: atom 245, ΔE=-0.264 eV
Deletion accepted: atom 187, ΔE=1.752 eV
Deletion accepted: atom 198, ΔE=-0.084 eV
Deletion accepted: atom 142, ΔE=-0.100 eV
Deletion accepted: atom 192, ΔE=0.348 eV
Deletion accepted: atom 142, ΔE=-0.100 eV
Deletion accepted: atom 195, ΔE=-0.513 eV
Deletion accepted: atom 232, ΔE=-0.347 eV
Deletion accepted: atom 185, ΔE=-0.241 eV
Deletion accepted: atom 182, ΔE=2.917 eV
Deletion accepted: atom 227, ΔE=-0.218 eV
Deletion accepted: atom 204, ΔE=-0.070 eV
Deletion accepted: atom 176, ΔE=-0.135 eV
Deletion accepted: atom 164, ΔE=2.805 eV
Deletion accepted: atom 186, ΔE=-0.111 eV
Deletion accepted: atom 206, ΔE=-0.157 eV
Deletion accepted: atom 139, ΔE=-0.209 eV
Deletion accepted: atom 246, ΔE=-0.021 eV
Deletion accepted: atom 189, ΔE=0.423 eV
Deletion accepted: atom 152, ΔE=-0.635 eV
Deletion accepted: atom 194, ΔE=-0.097 eV
Deletion accepted: atom 249, ΔE=-0.301 eV
Deletion accepted: atom 138, ΔE=-0.242 eV
GCMC: MD step 26, acceptance ratio = 0.3616
GCMC: Final number of atoms = 250
GCMC: Running 100 MC steps at temperature 300 K
GCMC: Current number of atoms = 250
Deletion accepted: atom 225, ΔE=-0.103 eV
GCMC step 0: atoms=250, acceptance_rate=0.362
Deletion accepted: atom 186, ΔE=-0.111 eV
Deletion accepted: atom 232, ΔE=-0.347 eV
Deletion accepted: atom 180, ΔE=-0.310 eV
Deletion accepted: atom 180, ΔE=-0.310 eV
Deletion accepted: atom 213, ΔE=-0.152 eV
Deletion accepted: atom 176, ΔE=-0.135 eV
Deletion accepted: atom 129, ΔE=0.200 eV
Deletion accepted: atom 241, ΔE=-0.232 eV
Deletion accepted: atom 125, ΔE=-0.165 eV
Deletion accepted: atom 226, ΔE=-0.002 eV
Deletion accepted: atom 196, ΔE=-0.010 eV
Deletion accepted: atom 155, ΔE=-0.164 eV
Deletion accepted: atom 227, ΔE=-0.218 eV
Deletion accepted: atom 155, ΔE=-0.164 eV
Deletion accepted: atom 231, ΔE=-0.058 eV
Deletion accepted: atom 187, ΔE=1.751 eV
Deletion accepted: atom 139, ΔE=-0.209 eV
Deletion accepted: atom 187, ΔE=1.751 eV
Deletion accepted: atom 224, ΔE=-0.494 eV
Deletion accepted: atom 163, ΔE=-0.243 eV
Deletion accepted: atom 204, ΔE=-0.070 eV
Deletion accepted: atom 204, ΔE=-0.070 eV
Deletion accepted: atom 162, ΔE=-0.425 eV
Deletion accepted: atom 218, ΔE=-0.067 eV
Deletion accepted: atom 155, ΔE=-0.164 eV
Deletion accepted: atom 209, ΔE=-0.153 eV
Deletion accepted: atom 179, ΔE=-0.217 eV
GCMC: MD step 27, acceptance ratio = 0.360385
GCMC: Final number of atoms = 250
GCMC: Running 100 MC steps at temperature 300 K
GCMC: Current number of atoms = 250
GCMC step 0: atoms=250, acceptance_rate=0.360
Deletion accepted: atom 216, ΔE=-0.182 eV
Deletion accepted: atom 220, ΔE=1.713 eV
Deletion accepted: atom 125, ΔE=-0.165 eV
Deletion accepted: atom 165, ΔE=-0.134 eV
Deletion accepted: atom 238, ΔE=-0.095 eV
Deletion accepted: atom 148, ΔE=-0.350 eV
Deletion accepted: atom 224, ΔE=-0.494 eV
Deletion accepted: atom 231, ΔE=-0.057 eV
Deletion accepted: atom 137, ΔE=-0.251 eV
Deletion accepted: atom 205, ΔE=0.692 eV
Deletion accepted: atom 211, ΔE=-0.165 eV
Deletion accepted: atom 152, ΔE=-0.665 eV
Deletion accepted: atom 220, ΔE=1.712 eV
Deletion accepted: atom 158, ΔE=-0.129 eV
Deletion accepted: atom 181, ΔE=-0.276 eV
Deletion accepted: atom 173, ΔE=-0.182 eV
Deletion accepted: atom 137, ΔE=-0.251 eV
Deletion accepted: atom 125, ΔE=-0.165 eV
Deletion accepted: atom 198, ΔE=-0.082 eV
Deletion accepted: atom 186, ΔE=-0.111 eV
Deletion accepted: atom 180, ΔE=-0.448 eV
Deletion accepted: atom 231, ΔE=-0.067 eV
Deletion accepted: atom 204, ΔE=-0.071 eV
Deletion accepted: atom 227, ΔE=-0.218 eV
Deletion accepted: atom 171, ΔE=-0.065 eV
Deletion accepted: atom 162, ΔE=-0.425 eV
Deletion accepted: atom 214, ΔE=-0.117 eV
Deletion accepted: atom 130, ΔE=-0.157 eV
GCMC: MD step 28, acceptance ratio = 0.362222
GCMC: Final number of atoms = 250
GCMC: Running 100 MC steps at temperature 300 K
GCMC: Current number of atoms = 250
Deletion accepted: atom 236, ΔE=-0.156 eV
GCMC step 0: atoms=250, acceptance_rate=0.362
Deletion accepted: atom 155, ΔE=-0.164 eV
Deletion accepted: atom 199, ΔE=-0.251 eV
Deletion accepted: atom 169, ΔE=1.062 eV
Deletion accepted: atom 189, ΔE=0.423 eV
Deletion accepted: atom 137, ΔE=-0.251 eV
Deletion accepted: atom 229, ΔE=-0.433 eV
Deletion accepted: atom 206, ΔE=-0.157 eV
Deletion accepted: atom 175, ΔE=-0.145 eV
Deletion accepted: atom 231, ΔE=-0.067 eV
Deletion accepted: atom 156, ΔE=2.797 eV
Deletion accepted: atom 245, ΔE=-0.264 eV
Deletion accepted: atom 157, ΔE=-0.356 eV
Deletion accepted: atom 201, ΔE=-0.251 eV
Deletion accepted: atom 199, ΔE=-0.251 eV
Deletion accepted: atom 243, ΔE=-0.034 eV
Deletion accepted: atom 201, ΔE=-0.251 eV
Deletion accepted: atom 217, ΔE=4.247 eV
Deletion accepted: atom 165, ΔE=-0.133 eV
Deletion accepted: atom 160, ΔE=-0.235 eV
Deletion accepted: atom 136, ΔE=-0.284 eV
Deletion accepted: atom 182, ΔE=-0.267 eV
Deletion accepted: atom 185, ΔE=-0.238 eV
Deletion accepted: atom 196, ΔE=-0.010 eV
Deletion accepted: atom 137, ΔE=-0.251 eV
Deletion accepted: atom 138, ΔE=-0.242 eV
Deletion accepted: atom 193, ΔE=-0.193 eV
Deletion accepted: atom 249, ΔE=-0.301 eV
Deletion accepted: atom 162, ΔE=-0.425 eV
GCMC: MD step 29, acceptance ratio = 0.362143
GCMC: Final number of atoms = 250
GCMC: Running 100 MC steps at temperature 300 K
GCMC: Current number of atoms = 250
GCMC step 0: atoms=250, acceptance_rate=0.362
Deletion accepted: atom 199, ΔE=-0.251 eV
Deletion accepted: atom 156, ΔE=2.797 eV
Deletion accepted: atom 160, ΔE=-0.209 eV
Deletion accepted: atom 179, ΔE=-0.217 eV
Deletion accepted: atom 183, ΔE=-0.098 eV
Deletion accepted: atom 158, ΔE=-0.129 eV
Deletion accepted: atom 236, ΔE=-0.156 eV
Deletion accepted: atom 167, ΔE=0.109 eV
Deletion accepted: atom 169, ΔE=1.068 eV
Deletion accepted: atom 154, ΔE=0.220 eV
Deletion accepted: atom 198, ΔE=-0.082 eV
Deletion accepted: atom 236, ΔE=-0.156 eV
Deletion accepted: atom 184, ΔE=-0.320 eV
Deletion accepted: atom 152, ΔE=-0.699 eV
Deletion accepted: atom 189, ΔE=0.423 eV
Deletion accepted: atom 137, ΔE=-0.251 eV
Deletion accepted: atom 221, ΔE=-0.115 eV
Deletion accepted: atom 166, ΔE=-0.000 eV
Deletion accepted: atom 145, ΔE=-0.118 eV
Deletion accepted: atom 241, ΔE=-0.165 eV
Deletion accepted: atom 136, ΔE=-0.287 eV
Deletion accepted: atom 226, ΔE=-0.002 eV
Deletion accepted: atom 177, ΔE=-0.331 eV
Deletion accepted: atom 187, ΔE=1.764 eV
GCMC: MD step 30, acceptance ratio = 0.362414
GCMC: Final number of atoms = 250
GCMC: Running 100 MC steps at temperature 300 K
GCMC: Current number of atoms = 250
Deletion accepted: atom 141, ΔE=-0.231 eV
GCMC step 0: atoms=250, acceptance_rate=0.363
Deletion accepted: atom 171, ΔE=-0.065 eV
Deletion accepted: atom 170, ΔE=-0.487 eV
Deletion accepted: atom 132, ΔE=-0.233 eV
Deletion accepted: atom 212, ΔE=-0.089 eV
Deletion accepted: atom 157, ΔE=-0.338 eV
Deletion accepted: atom 229, ΔE=-0.430 eV
Deletion accepted: atom 229, ΔE=-0.430 eV
Deletion accepted: atom 143, ΔE=-0.231 eV
Deletion accepted: atom 143, ΔE=-0.231 eV
Deletion accepted: atom 220, ΔE=1.712 eV
Deletion accepted: atom 142, ΔE=-0.029 eV
Deletion accepted: atom 197, ΔE=-0.257 eV
Deletion accepted: atom 176, ΔE=-0.135 eV
Deletion accepted: atom 189, ΔE=0.571 eV
Deletion accepted: atom 228, ΔE=-0.022 eV
Deletion accepted: atom 226, ΔE=-0.002 eV
Deletion accepted: atom 210, ΔE=-0.398 eV
Deletion accepted: atom 148, ΔE=-0.291 eV
Deletion accepted: atom 185, ΔE=-0.238 eV
Deletion accepted: atom 194, ΔE=-0.095 eV
Deletion accepted: atom 205, ΔE=0.728 eV
Deletion accepted: atom 229, ΔE=-0.430 eV
Deletion accepted: atom 225, ΔE=-0.096 eV
Deletion accepted: atom 187, ΔE=1.765 eV
Deletion accepted: atom 192, ΔE=0.349 eV
Deletion accepted: atom 246, ΔE=-0.021 eV
Deletion accepted: atom 156, ΔE=2.796 eV
Deletion accepted: atom 176, ΔE=-0.127 eV
Deletion accepted: atom 137, ΔE=-0.251 eV
Deletion accepted: atom 176, ΔE=-0.127 eV
Deletion accepted: atom 195, ΔE=-0.136 eV
Deletion accepted: atom 182, ΔE=-0.252 eV
Deletion accepted: atom 248, ΔE=-0.028 eV
Deletion accepted: atom 190, ΔE=-0.179 eV
GCMC: MD step 31, acceptance ratio = 0.365
GCMC: Final number of atoms = 250
    30 steps completed.
GCMC: Running 100 MC steps at temperature 300 K
GCMC: Current number of atoms = 250
GCMC step 0: atoms=250, acceptance_rate=0.365
Deletion accepted: atom 192, ΔE=0.349 eV
Deletion accepted: atom 213, ΔE=-0.152 eV
Deletion accepted: atom 210, ΔE=-0.398 eV
Deletion accepted: atom 199, ΔE=-0.255 eV
Deletion accepted: atom 177, ΔE=-0.330 eV
Deletion accepted: atom 231, ΔE=-0.084 eV
Deletion accepted: atom 196, ΔE=-0.010 eV
Deletion accepted: atom 128, ΔE=-0.057 eV
Deletion accepted: atom 205, ΔE=0.729 eV
Deletion accepted: atom 146, ΔE=-0.283 eV
Deletion accepted: atom 218, ΔE=-0.071 eV
Deletion accepted: atom 244, ΔE=5.117 eV
Deletion accepted: atom 175, ΔE=-0.144 eV
Deletion accepted: atom 190, ΔE=-0.179 eV
Deletion accepted: atom 155, ΔE=-0.164 eV
Deletion accepted: atom 177, ΔE=-0.330 eV
Deletion accepted: atom 176, ΔE=-0.127 eV
Deletion accepted: atom 237, ΔE=-0.689 eV
Deletion accepted: atom 197, ΔE=-0.257 eV
Deletion accepted: atom 241, ΔE=-0.158 eV
GCMC: MD step 32, acceptance ratio = 0.362903
GCMC: Final number of atoms = 250
GCMC: Running 100 MC steps at temperature 300 K
GCMC: Current number of atoms = 250
Deletion accepted: atom 165, ΔE=-0.158 eV
GCMC step 0: atoms=250, acceptance_rate=0.363
Deletion accepted: atom 148, ΔE=-0.291 eV
Deletion accepted: atom 211, ΔE=-0.164 eV
Deletion accepted: atom 225, ΔE=-0.096 eV
Deletion accepted: atom 154, ΔE=0.220 eV
Deletion accepted: atom 188, ΔE=-0.050 eV
Deletion accepted: atom 194, ΔE=-0.097 eV
Deletion accepted: atom 129, ΔE=0.197 eV
Deletion accepted: atom 246, ΔE=-0.021 eV
Deletion accepted: atom 231, ΔE=-0.073 eV
Deletion accepted: atom 171, ΔE=-0.066 eV
Deletion accepted: atom 238, ΔE=-0.095 eV
Deletion accepted: atom 126, ΔE=-0.230 eV
Deletion accepted: atom 191, ΔE=-0.037 eV
Deletion accepted: atom 128, ΔE=-0.057 eV
Deletion accepted: atom 145, ΔE=-0.124 eV
Deletion accepted: atom 192, ΔE=0.308 eV
Deletion accepted: atom 129, ΔE=0.197 eV
Deletion accepted: atom 145, ΔE=-0.124 eV
Deletion accepted: atom 204, ΔE=-0.071 eV
Deletion accepted: atom 151, ΔE=-0.199 eV
Deletion accepted: atom 232, ΔE=-0.324 eV
Deletion accepted: atom 241, ΔE=-0.158 eV
Deletion accepted: atom 192, ΔE=0.308 eV
GCMC: MD step 33, acceptance ratio = 0.36125
GCMC: Final number of atoms = 250
GCMC: Running 100 MC steps at temperature 300 K
GCMC: Current number of atoms = 250
Deletion accepted: atom 236, ΔE=-0.155 eV
GCMC step 0: atoms=250, acceptance_rate=0.361
Deletion accepted: atom 225, ΔE=-0.096 eV
Deletion accepted: atom 160, ΔE=-0.202 eV
Deletion accepted: atom 155, ΔE=-0.164 eV
Deletion accepted: atom 192, ΔE=0.310 eV
Deletion accepted: atom 249, ΔE=-0.301 eV
Deletion accepted: atom 227, ΔE=-0.387 eV
Deletion accepted: atom 249, ΔE=-0.301 eV
Deletion accepted: atom 175, ΔE=-0.140 eV
Deletion accepted: atom 191, ΔE=-0.037 eV
Deletion accepted: atom 182, ΔE=-0.192 eV
Deletion accepted: atom 165, ΔE=-0.171 eV
Deletion accepted: atom 146, ΔE=-0.282 eV
Deletion accepted: atom 176, ΔE=-0.128 eV
Deletion accepted: atom 143, ΔE=-0.231 eV
Deletion accepted: atom 205, ΔE=0.730 eV
Deletion accepted: atom 182, ΔE=-0.192 eV
Deletion accepted: atom 181, ΔE=-0.230 eV
Deletion accepted: atom 212, ΔE=-0.099 eV
Deletion accepted: atom 163, ΔE=-0.245 eV
Deletion accepted: atom 223, ΔE=4.068 eV
Deletion accepted: atom 228, ΔE=-0.024 eV
Deletion accepted: atom 228, ΔE=-0.024 eV
Deletion accepted: atom 221, ΔE=-0.115 eV
Deletion accepted: atom 243, ΔE=-0.035 eV
Deletion accepted: atom 179, ΔE=-0.217 eV
Deletion accepted: atom 247, ΔE=-0.289 eV
Deletion accepted: atom 163, ΔE=-0.244 eV
Deletion accepted: atom 130, ΔE=-0.164 eV
Deletion accepted: atom 223, ΔE=4.068 eV
GCMC: MD step 34, acceptance ratio = 0.363333
GCMC: Final number of atoms = 250
GCMC: Running 100 MC steps at temperature 300 K
GCMC: Current number of atoms = 250
Deletion accepted: atom 196, ΔE=-0.010 eV
GCMC step 0: atoms=250, acceptance_rate=0.364
Deletion accepted: atom 144, ΔE=-0.053 eV
Deletion accepted: atom 239, ΔE=-0.272 eV
Deletion accepted: atom 182, ΔE=-0.180 eV
Deletion accepted: atom 219, ΔE=-0.154 eV
Deletion accepted: atom 199, ΔE=-0.254 eV
Deletion accepted: atom 175, ΔE=-0.146 eV
Deletion accepted: atom 247, ΔE=-0.289 eV
Deletion accepted: atom 184, ΔE=-0.335 eV
Deletion accepted: atom 189, ΔE=0.929 eV
Deletion accepted: atom 241, ΔE=-0.159 eV
Deletion accepted: atom 156, ΔE=2.791 eV
Deletion accepted: atom 226, ΔE=-0.002 eV
Deletion accepted: atom 211, ΔE=-0.164 eV
Deletion accepted: atom 175, ΔE=-0.146 eV
Deletion accepted: atom 209, ΔE=-0.191 eV
Deletion accepted: atom 152, ΔE=-0.678 eV
Deletion accepted: atom 162, ΔE=-0.423 eV
Deletion accepted: atom 242, ΔE=-0.214 eV
Deletion accepted: atom 153, ΔE=-0.366 eV
Deletion accepted: atom 222, ΔE=-0.153 eV
Deletion accepted: atom 190, ΔE=-0.150 eV
Deletion accepted: atom 234, ΔE=4.948 eV
Deletion accepted: atom 154, ΔE=0.219 eV
Deletion accepted: atom 163, ΔE=-0.244 eV
Deletion accepted: atom 173, ΔE=-0.145 eV
Deletion accepted: atom 180, ΔE=-0.369 eV
Deletion accepted: atom 126, ΔE=-0.235 eV
Deletion accepted: atom 175, ΔE=-0.146 eV
Deletion accepted: atom 146, ΔE=-0.283 eV
Deletion accepted: atom 173, ΔE=-0.145 eV
Deletion accepted: atom 217, ΔE=3.852 eV
Deletion accepted: atom 177, ΔE=-0.345 eV
Deletion accepted: atom 236, ΔE=-0.156 eV
Deletion accepted: atom 205, ΔE=0.730 eV
Deletion accepted: atom 229, ΔE=-0.425 eV
GCMC: MD step 35, acceptance ratio = 0.366471
GCMC: Final number of atoms = 250
GCMC: Running 100 MC steps at temperature 300 K
GCMC: Current number of atoms = 250
GCMC step 0: atoms=250, acceptance_rate=0.366
Deletion accepted: atom 160, ΔE=-0.201 eV
Deletion accepted: atom 189, ΔE=0.929 eV
Deletion accepted: atom 155, ΔE=-0.164 eV
Deletion accepted: atom 198, ΔE=-0.079 eV
Deletion accepted: atom 175, ΔE=-0.101 eV
Deletion accepted: atom 201, ΔE=-0.235 eV
Deletion accepted: atom 146, ΔE=-0.281 eV
Deletion accepted: atom 129, ΔE=-0.206 eV
Deletion accepted: atom 216, ΔE=-0.132 eV
Deletion accepted: atom 247, ΔE=-0.289 eV
Deletion accepted: atom 166, ΔE=-0.000 eV
Deletion accepted: atom 153, ΔE=-0.366 eV
Deletion accepted: atom 133, ΔE=-0.153 eV
Deletion accepted: atom 216, ΔE=-0.132 eV
Deletion accepted: atom 176, ΔE=-0.182 eV
Deletion accepted: atom 224, ΔE=-0.431 eV
Deletion accepted: atom 139, ΔE=-0.493 eV
Deletion accepted: atom 167, ΔE=0.136 eV
Deletion accepted: atom 246, ΔE=-0.021 eV
Deletion accepted: atom 141, ΔE=-0.232 eV
Deletion accepted: atom 143, ΔE=-0.232 eV
Deletion accepted: atom 229, ΔE=-0.425 eV
Deletion accepted: atom 162, ΔE=3.778 eV
Deletion accepted: atom 226, ΔE=-0.002 eV
Deletion accepted: atom 221, ΔE=-0.115 eV
Deletion accepted: atom 193, ΔE=-0.142 eV
Deletion accepted: atom 169, ΔE=1.050 eV
Deletion accepted: atom 141, ΔE=-0.232 eV
Deletion accepted: atom 136, ΔE=-0.283 eV
Deletion accepted: atom 204, ΔE=-0.062 eV
Deletion accepted: atom 209, ΔE=-0.191 eV
Deletion accepted: atom 141, ΔE=-0.232 eV
Deletion accepted: atom 224, ΔE=-0.490 eV
GCMC: MD step 36, acceptance ratio = 0.368571
GCMC: Final number of atoms = 250
GCMC: Running 100 MC steps at temperature 300 K
GCMC: Current number of atoms = 250
GCMC step 0: atoms=250, acceptance_rate=0.369
Deletion accepted: atom 160, ΔE=-0.201 eV
Deletion accepted: atom 200, ΔE=-0.180 eV
Deletion accepted: atom 180, ΔE=-0.371 eV
Deletion accepted: atom 199, ΔE=-0.248 eV
Deletion accepted: atom 196, ΔE=-0.010 eV
Deletion accepted: atom 187, ΔE=1.720 eV
Deletion accepted: atom 153, ΔE=-0.366 eV
Deletion accepted: atom 186, ΔE=-0.111 eV
Deletion accepted: atom 217, ΔE=3.854 eV
Deletion accepted: atom 221, ΔE=-0.115 eV
Deletion accepted: atom 162, ΔE=3.802 eV
Deletion accepted: atom 213, ΔE=-0.158 eV
Deletion accepted: atom 234, ΔE=-0.236 eV
Deletion accepted: atom 244, ΔE=4.054 eV
Deletion accepted: atom 168, ΔE=-0.093 eV
Deletion accepted: atom 141, ΔE=-0.232 eV
Deletion accepted: atom 224, ΔE=-0.490 eV
Deletion accepted: atom 226, ΔE=-0.002 eV
Deletion accepted: atom 194, ΔE=-0.086 eV
Deletion accepted: atom 129, ΔE=-0.169 eV
Deletion accepted: atom 130, ΔE=-0.165 eV
Deletion accepted: atom 164, ΔE=-0.122 eV
Deletion accepted: atom 238, ΔE=-0.095 eV
Deletion accepted: atom 222, ΔE=-0.167 eV
GCMC: MD step 37, acceptance ratio = 0.368056
GCMC: Final number of atoms = 250
GCMC: Running 100 MC steps at temperature 300 K
GCMC: Current number of atoms = 250
Deletion accepted: atom 223, ΔE=4.070 eV
GCMC step 0: atoms=250, acceptance_rate=0.368
Deletion accepted: atom 222, ΔE=-0.167 eV
Deletion accepted: atom 200, ΔE=-0.180 eV
Deletion accepted: atom 242, ΔE=-0.209 eV
Deletion accepted: atom 168, ΔE=-0.093 eV
Deletion accepted: atom 191, ΔE=-0.018 eV
Deletion accepted: atom 138, ΔE=1.884 eV
Deletion accepted: atom 242, ΔE=-0.209 eV
Deletion accepted: atom 226, ΔE=-0.002 eV
Deletion accepted: atom 238, ΔE=-0.095 eV
Deletion accepted: atom 189, ΔE=0.224 eV
Deletion accepted: atom 182, ΔE=-0.154 eV
Deletion accepted: atom 201, ΔE=-0.235 eV
Deletion accepted: atom 139, ΔE=-0.478 eV
Deletion accepted: atom 126, ΔE=-0.236 eV
Deletion accepted: atom 137, ΔE=-0.333 eV
Deletion accepted: atom 206, ΔE=-0.156 eV
Deletion accepted: atom 154, ΔE=0.054 eV
Deletion accepted: atom 152, ΔE=-0.694 eV
Deletion accepted: atom 232, ΔE=-0.286 eV
Deletion accepted: atom 129, ΔE=-0.169 eV
Deletion accepted: atom 141, ΔE=-0.232 eV
Deletion accepted: atom 219, ΔE=-0.150 eV
Deletion accepted: atom 126, ΔE=-0.236 eV
Deletion accepted: atom 183, ΔE=-0.091 eV
Deletion accepted: atom 161, ΔE=-0.338 eV
Deletion accepted: atom 241, ΔE=-0.159 eV
Deletion accepted: atom 232, ΔE=-0.286 eV
Deletion accepted: atom 236, ΔE=-0.155 eV
Deletion accepted: atom 211, ΔE=-0.164 eV
Deletion accepted: atom 209, ΔE=-0.191 eV
Deletion accepted: atom 176, ΔE=-0.182 eV
Deletion accepted: atom 145, ΔE=-0.069 eV
Deletion accepted: atom 142, ΔE=-0.030 eV
Deletion accepted: atom 182, ΔE=-0.151 eV
Deletion accepted: atom 199, ΔE=-0.248 eV
Deletion accepted: atom 187, ΔE=1.720 eV
Deletion accepted: atom 236, ΔE=-0.155 eV
Deletion accepted: atom 144, ΔE=-0.057 eV
Deletion accepted: atom 129, ΔE=-0.186 eV
GCMC: MD step 38, acceptance ratio = 0.371892
GCMC: Final number of atoms = 250
GCMC: Running 100 MC steps at temperature 300 K
GCMC: Current number of atoms = 250
Deletion accepted: atom 169, ΔE=1.050 eV
GCMC step 0: atoms=250, acceptance_rate=0.372
Deletion accepted: atom 158, ΔE=-0.117 eV
Deletion accepted: atom 210, ΔE=-0.294 eV
Deletion accepted: atom 223, ΔE=4.073 eV
Deletion accepted: atom 180, ΔE=-0.371 eV
Deletion accepted: atom 179, ΔE=-0.164 eV
Deletion accepted: atom 143, ΔE=-0.186 eV
Deletion accepted: atom 184, ΔE=-0.155 eV
Deletion accepted: atom 189, ΔE=0.224 eV
Deletion accepted: atom 246, ΔE=-0.021 eV
Deletion accepted: atom 224, ΔE=-0.483 eV
Deletion accepted: atom 202, ΔE=-0.274 eV
Deletion accepted: atom 216, ΔE=-0.303 eV
Deletion accepted: atom 198, ΔE=-0.079 eV
Deletion accepted: atom 132, ΔE=-0.270 eV
Deletion accepted: atom 224, ΔE=-0.510 eV
Deletion accepted: atom 126, ΔE=-0.236 eV
Deletion accepted: atom 143, ΔE=-0.270 eV
Deletion accepted: atom 226, ΔE=-0.002 eV
Deletion accepted: atom 138, ΔE=1.884 eV
Deletion accepted: atom 174, ΔE=-0.369 eV
Deletion accepted: atom 226, ΔE=-0.002 eV
Deletion accepted: atom 178, ΔE=-0.060 eV
Deletion accepted: atom 209, ΔE=-0.223 eV
Deletion accepted: atom 140, ΔE=0.220 eV
Deletion accepted: atom 219, ΔE=-0.150 eV
Deletion accepted: atom 202, ΔE=-0.274 eV
Deletion accepted: atom 190, ΔE=-0.146 eV
Deletion accepted: atom 196, ΔE=-0.021 eV
Deletion accepted: atom 214, ΔE=-0.163 eV
GCMC: MD step 39, acceptance ratio = 0.372895
GCMC: Final number of atoms = 250
GCMC: Running 100 MC steps at temperature 300 K
GCMC: Current number of atoms = 250
GCMC step 0: atoms=250, acceptance_rate=0.373
Deletion accepted: atom 237, ΔE=-0.591 eV
Deletion accepted: atom 182, ΔE=-0.152 eV
Deletion accepted: atom 146, ΔE=-0.238 eV
Deletion accepted: atom 132, ΔE=-0.270 eV
Deletion accepted: atom 243, ΔE=-0.003 eV
Deletion accepted: atom 145, ΔE=-0.141 eV
Deletion accepted: atom 231, ΔE=-0.111 eV
Deletion accepted: atom 183, ΔE=-0.091 eV
Deletion accepted: atom 175, ΔE=-0.101 eV
Deletion accepted: atom 239, ΔE=-0.261 eV
Deletion accepted: atom 244, ΔE=3.987 eV
Deletion accepted: atom 239, ΔE=-0.261 eV
Deletion accepted: atom 195, ΔE=-0.072 eV
Deletion accepted: atom 230, ΔE=-0.173 eV
Deletion accepted: atom 248, ΔE=-0.028 eV
Deletion accepted: atom 128, ΔE=-0.091 eV
Deletion accepted: atom 197, ΔE=-0.293 eV
Deletion accepted: atom 151, ΔE=-0.223 eV
Deletion accepted: atom 206, ΔE=-0.156 eV
Deletion accepted: atom 241, ΔE=-0.161 eV
Deletion accepted: atom 183, ΔE=-0.091 eV
Deletion accepted: atom 206, ΔE=-0.156 eV
Deletion accepted: atom 223, ΔE=4.067 eV
Deletion accepted: atom 180, ΔE=-0.371 eV
Deletion accepted: atom 178, ΔE=-0.059 eV
Deletion accepted: atom 209, ΔE=-0.233 eV
Deletion accepted: atom 188, ΔE=-0.052 eV
Deletion accepted: atom 247, ΔE=-0.289 eV
Deletion accepted: atom 166, ΔE=-0.001 eV
Deletion accepted: atom 207, ΔE=1.868 eV
GCMC: MD step 40, acceptance ratio = 0.37359
GCMC: Final number of atoms = 250
GCMC: Running 100 MC steps at temperature 300 K
GCMC: Current number of atoms = 250
GCMC step 0: atoms=250, acceptance_rate=0.373
Deletion accepted: atom 205, ΔE=0.730 eV
Deletion accepted: atom 242, ΔE=-0.209 eV
Deletion accepted: atom 239, ΔE=-0.261 eV
Deletion accepted: atom 203, ΔE=-0.139 eV
Deletion accepted: atom 140, ΔE=0.219 eV
Deletion accepted: atom 144, ΔE=-0.054 eV
Deletion accepted: atom 197, ΔE=-0.293 eV
Deletion accepted: atom 191, ΔE=-0.018 eV
Deletion accepted: atom 129, ΔE=-0.148 eV
Deletion accepted: atom 185, ΔE=-0.228 eV
Deletion accepted: atom 128, ΔE=-0.091 eV
Deletion accepted: atom 157, ΔE=-0.407 eV
Deletion accepted: atom 148, ΔE=-0.257 eV
Deletion accepted: atom 156, ΔE=2.724 eV
Deletion accepted: atom 192, ΔE=-0.152 eV
Deletion accepted: atom 129, ΔE=-0.148 eV
Deletion accepted: atom 221, ΔE=-0.116 eV
Deletion accepted: atom 126, ΔE=-0.248 eV
Deletion accepted: atom 141, ΔE=-0.232 eV
Deletion accepted: atom 144, ΔE=-0.053 eV
Deletion accepted: atom 248, ΔE=-0.028 eV
Deletion accepted: atom 213, ΔE=-0.157 eV
Deletion accepted: atom 184, ΔE=-0.161 eV
Deletion accepted: atom 204, ΔE=-0.062 eV
Deletion accepted: atom 204, ΔE=-0.062 eV
Deletion accepted: atom 169, ΔE=1.024 eV
Deletion accepted: atom 245, ΔE=-0.184 eV
Deletion accepted: atom 155, ΔE=-0.163 eV
Deletion accepted: atom 142, ΔE=-0.033 eV
GCMC: MD step 41, acceptance ratio = 0.37425
GCMC: Final number of atoms = 250
    40 steps completed.
GCMC: Running 100 MC steps at temperature 300 K
GCMC: Current number of atoms = 250
GCMC step 0: atoms=250, acceptance_rate=0.374
Deletion accepted: atom 229, ΔE=-0.414 eV
Deletion accepted: atom 203, ΔE=-0.139 eV
Deletion accepted: atom 227, ΔE=-0.338 eV
Deletion accepted: atom 201, ΔE=-0.235 eV
Deletion accepted: atom 172, ΔE=2.563 eV
Deletion accepted: atom 125, ΔE=-0.197 eV
Deletion accepted: atom 132, ΔE=-0.272 eV
Deletion accepted: atom 153, ΔE=-0.304 eV
Deletion accepted: atom 151, ΔE=-0.188 eV
Deletion accepted: atom 207, ΔE=1.868 eV
Deletion accepted: atom 242, ΔE=-0.209 eV
Deletion accepted: atom 205, ΔE=0.725 eV
Deletion accepted: atom 154, ΔE=0.061 eV
Deletion accepted: atom 228, ΔE=-0.010 eV
Deletion accepted: atom 202, ΔE=-0.328 eV
Deletion accepted: atom 129, ΔE=-0.148 eV
Deletion accepted: atom 203, ΔE=-0.139 eV
Deletion accepted: atom 233, ΔE=-0.235 eV
Deletion accepted: atom 143, ΔE=-0.268 eV
Deletion accepted: atom 216, ΔE=-0.303 eV
Deletion accepted: atom 163, ΔE=-0.242 eV
Deletion accepted: atom 169, ΔE=1.024 eV
Deletion accepted: atom 174, ΔE=-0.354 eV
Deletion accepted: atom 143, ΔE=-0.268 eV
Deletion accepted: atom 209, ΔE=-0.233 eV
Deletion accepted: atom 238, ΔE=-0.095 eV
Deletion accepted: atom 180, ΔE=-0.373 eV
Deletion accepted: atom 160, ΔE=-0.255 eV
Deletion accepted: atom 182, ΔE=-0.154 eV
Deletion accepted: atom 246, ΔE=-0.021 eV
Deletion accepted: atom 233, ΔE=-0.235 eV
Deletion accepted: atom 179, ΔE=-0.162 eV
Deletion accepted: atom 225, ΔE=-0.010 eV
Deletion accepted: atom 143, ΔE=-0.268 eV
Deletion accepted: atom 200, ΔE=-0.182 eV
GCMC: MD step 42, acceptance ratio = 0.375122
GCMC: Final number of atoms = 250
GCMC: Running 100 MC steps at temperature 300 K
GCMC: Current number of atoms = 250
Deletion accepted: atom 197, ΔE=-0.207 eV
GCMC step 0: atoms=250, acceptance_rate=0.375
Deletion accepted: atom 172, ΔE=2.563 eV
Deletion accepted: atom 216, ΔE=-0.310 eV
Deletion accepted: atom 152, ΔE=-0.672 eV
Deletion accepted: atom 147, ΔE=-0.205 eV
Deletion accepted: atom 245, ΔE=-0.185 eV
Deletion accepted: atom 236, ΔE=-0.155 eV
Deletion accepted: atom 219, ΔE=-0.166 eV
Deletion accepted: atom 245, ΔE=-0.185 eV
Deletion accepted: atom 201, ΔE=-0.235 eV
Deletion accepted: atom 206, ΔE=-0.095 eV
Deletion accepted: atom 206, ΔE=-0.095 eV
Deletion accepted: atom 195, ΔE=-0.073 eV
Deletion accepted: atom 166, ΔE=-0.001 eV
Deletion accepted: atom 132, ΔE=-0.272 eV
Deletion accepted: atom 138, ΔE=1.920 eV
Deletion accepted: atom 201, ΔE=-0.235 eV
Deletion accepted: atom 219, ΔE=-0.166 eV
Deletion accepted: atom 147, ΔE=-0.205 eV
Deletion accepted: atom 230, ΔE=-0.194 eV
Deletion accepted: atom 153, ΔE=-0.304 eV
Deletion accepted: atom 167, ΔE=-0.365 eV
Deletion accepted: atom 156, ΔE=-0.064 eV
Deletion accepted: atom 249, ΔE=-0.292 eV
Deletion accepted: atom 216, ΔE=-0.262 eV
Deletion accepted: atom 133, ΔE=-0.092 eV
GCMC: MD step 43, acceptance ratio = 0.375714
GCMC: Final number of atoms = 250
GCMC: Running 100 MC steps at temperature 300 K
GCMC: Current number of atoms = 250
Deletion accepted: atom 210, ΔE=-0.384 eV
GCMC step 0: atoms=250, acceptance_rate=0.376
Deletion accepted: atom 200, ΔE=-0.181 eV
Deletion accepted: atom 195, ΔE=-0.072 eV
Deletion accepted: atom 160, ΔE=-0.255 eV
Deletion accepted: atom 177, ΔE=-0.381 eV
Deletion accepted: atom 207, ΔE=1.868 eV
Deletion accepted: atom 216, ΔE=-0.262 eV
Deletion accepted: atom 203, ΔE=-0.139 eV
Deletion accepted: atom 161, ΔE=-0.526 eV
Deletion accepted: atom 176, ΔE=-0.182 eV
Deletion accepted: atom 232, ΔE=-0.298 eV
Deletion accepted: atom 221, ΔE=-0.115 eV
Deletion accepted: atom 172, ΔE=2.563 eV
Deletion accepted: atom 179, ΔE=-0.162 eV
Deletion accepted: atom 202, ΔE=-0.318 eV
Deletion accepted: atom 130, ΔE=-0.166 eV
Deletion accepted: atom 241, ΔE=-0.097 eV
Deletion accepted: atom 246, ΔE=-0.021 eV
Deletion accepted: atom 205, ΔE=0.728 eV
Deletion accepted: atom 201, ΔE=-0.266 eV
Deletion accepted: atom 172, ΔE=2.563 eV
Deletion accepted: atom 232, ΔE=-0.298 eV
Deletion accepted: atom 155, ΔE=-0.166 eV
Deletion accepted: atom 144, ΔE=-0.040 eV
Deletion accepted: atom 182, ΔE=-0.155 eV
Deletion accepted: atom 142, ΔE=-0.035 eV
Deletion accepted: atom 222, ΔE=-0.085 eV
Deletion accepted: atom 176, ΔE=-0.157 eV
Deletion accepted: atom 161, ΔE=-0.526 eV
Deletion accepted: atom 209, ΔE=-0.214 eV
GCMC: MD step 44, acceptance ratio = 0.376279
GCMC: Final number of atoms = 250
GCMC: Running 100 MC steps at temperature 300 K
GCMC: Current number of atoms = 250
GCMC step 0: atoms=250, acceptance_rate=0.376
Deletion accepted: atom 132, ΔE=-0.270 eV
Deletion accepted: atom 208, ΔE=3.910 eV
Deletion accepted: atom 201, ΔE=-0.266 eV
Deletion accepted: atom 157, ΔE=-0.414 eV
Deletion accepted: atom 203, ΔE=-0.139 eV
Deletion accepted: atom 215, ΔE=-0.311 eV
Deletion accepted: atom 181, ΔE=-0.251 eV
Deletion accepted: atom 199, ΔE=-0.245 eV
Deletion accepted: atom 151, ΔE=-0.248 eV
Deletion accepted: atom 151, ΔE=-0.248 eV
Deletion accepted: atom 212, ΔE=-0.267 eV
Deletion accepted: atom 143, ΔE=-0.332 eV
Deletion accepted: atom 176, ΔE=-0.157 eV
Deletion accepted: atom 183, ΔE=-0.015 eV
Deletion accepted: atom 204, ΔE=-0.053 eV
Deletion accepted: atom 182, ΔE=-0.155 eV
Deletion accepted: atom 163, ΔE=-0.257 eV
Deletion accepted: atom 195, ΔE=-0.076 eV
Deletion accepted: atom 171, ΔE=-0.065 eV
Deletion accepted: atom 246, ΔE=-0.021 eV
Deletion accepted: atom 177, ΔE=-0.377 eV
Deletion accepted: atom 210, ΔE=-0.386 eV
Deletion accepted: atom 137, ΔE=-0.353 eV
Deletion accepted: atom 205, ΔE=0.736 eV
Deletion accepted: atom 234, ΔE=-0.311 eV
Deletion accepted: atom 172, ΔE=2.563 eV
Deletion accepted: atom 191, ΔE=-0.066 eV
Deletion accepted: atom 213, ΔE=-0.158 eV
Deletion accepted: atom 225, ΔE=-0.004 eV
Deletion accepted: atom 221, ΔE=-0.114 eV
Deletion accepted: atom 146, ΔE=-0.231 eV
Deletion accepted: atom 201, ΔE=-0.266 eV
Deletion accepted: atom 183, ΔE=-0.015 eV
Deletion accepted: atom 191, ΔE=-0.066 eV
Deletion accepted: atom 139, ΔE=-0.396 eV
Deletion accepted: atom 137, ΔE=-0.353 eV
Deletion accepted: atom 148, ΔE=-0.179 eV
GCMC: MD step 45, acceptance ratio = 0.378864
GCMC: Final number of atoms = 250
GCMC: Running 100 MC steps at temperature 300 K
GCMC: Current number of atoms = 250
Deletion accepted: atom 144, ΔE=-0.522 eV
GCMC step 0: atoms=250, acceptance_rate=0.379
Deletion accepted: atom 241, ΔE=-0.097 eV
Deletion accepted: atom 183, ΔE=-0.015 eV
Deletion accepted: atom 198, ΔE=-0.079 eV
Deletion accepted: atom 236, ΔE=-0.158 eV
Deletion accepted: atom 126, ΔE=-0.247 eV
Deletion accepted: atom 178, ΔE=-0.060 eV
Deletion accepted: atom 209, ΔE=-0.214 eV
Deletion accepted: atom 191, ΔE=-0.066 eV
Deletion accepted: atom 182, ΔE=-0.155 eV
Deletion accepted: atom 197, ΔE=-0.207 eV
Deletion accepted: atom 151, ΔE=-0.248 eV
Deletion accepted: atom 240, ΔE=0.024 eV
Deletion accepted: atom 156, ΔE=-0.064 eV
Deletion accepted: atom 172, ΔE=2.563 eV
Deletion accepted: atom 217, ΔE=3.827 eV
Deletion accepted: atom 162, ΔE=-0.069 eV
Deletion accepted: atom 246, ΔE=-0.021 eV
Deletion accepted: atom 228, ΔE=-0.009 eV
Deletion accepted: atom 188, ΔE=-0.096 eV
Deletion accepted: atom 227, ΔE=-0.363 eV
Deletion accepted: atom 242, ΔE=-0.187 eV
Deletion accepted: atom 183, ΔE=-0.015 eV
Deletion accepted: atom 154, ΔE=0.052 eV
Deletion accepted: atom 195, ΔE=-0.076 eV
Deletion accepted: atom 207, ΔE=1.869 eV
Deletion accepted: atom 222, ΔE=0.348 eV
Deletion accepted: atom 125, ΔE=-0.217 eV
Deletion accepted: atom 208, ΔE=0.547 eV
Deletion accepted: atom 228, ΔE=-0.009 eV
Deletion accepted: atom 185, ΔE=-0.223 eV
Deletion accepted: atom 241, ΔE=-0.097 eV
Deletion accepted: atom 242, ΔE=-0.187 eV
Deletion accepted: atom 165, ΔE=-0.142 eV
GCMC: MD step 46, acceptance ratio = 0.379778
GCMC: Final number of atoms = 250
GCMC: Running 100 MC steps at temperature 300 K
GCMC: Current number of atoms = 250
GCMC step 0: atoms=250, acceptance_rate=0.380
Deletion accepted: atom 148, ΔE=-0.239 eV
Deletion accepted: atom 225, ΔE=-0.004 eV
Deletion accepted: atom 210, ΔE=-0.386 eV
Deletion accepted: atom 135, ΔE=-0.064 eV
Deletion accepted: atom 153, ΔE=-0.304 eV
Deletion accepted: atom 127, ΔE=3.749 eV
Deletion accepted: atom 240, ΔE=0.023 eV
Deletion accepted: atom 136, ΔE=-0.275 eV
Deletion accepted: atom 156, ΔE=-0.063 eV
Deletion accepted: atom 149, ΔE=-0.284 eV
Deletion accepted: atom 177, ΔE=-0.440 eV
Deletion accepted: atom 157, ΔE=-0.402 eV
Deletion accepted: atom 230, ΔE=-0.194 eV
Deletion accepted: atom 247, ΔE=-0.289 eV
Deletion accepted: atom 246, ΔE=-0.023 eV
Deletion accepted: atom 145, ΔE=-0.297 eV
Deletion accepted: atom 216, ΔE=-0.262 eV
Deletion accepted: atom 185, ΔE=-0.223 eV
Deletion accepted: atom 193, ΔE=-0.171 eV
Deletion accepted: atom 137, ΔE=-0.353 eV
Deletion accepted: atom 239, ΔE=-0.267 eV
Deletion accepted: atom 237, ΔE=-0.552 eV
Deletion accepted: atom 224, ΔE=-0.515 eV
Deletion accepted: atom 213, ΔE=-0.158 eV
Deletion accepted: atom 175, ΔE=-0.170 eV
Deletion accepted: atom 130, ΔE=-0.131 eV
Deletion accepted: atom 234, ΔE=-0.311 eV
Deletion accepted: atom 128, ΔE=-0.091 eV
Deletion accepted: atom 242, ΔE=-0.187 eV
Deletion accepted: atom 180, ΔE=-0.350 eV
GCMC: MD step 47, acceptance ratio = 0.379783
GCMC: Final number of atoms = 250
GCMC: Running 100 MC steps at temperature 300 K
GCMC: Current number of atoms = 250
GCMC step 0: atoms=250, acceptance_rate=0.380
Deletion accepted: atom 145, ΔE=-0.297 eV
Deletion accepted: atom 247, ΔE=-0.301 eV
Deletion accepted: atom 231, ΔE=-0.110 eV
Deletion accepted: atom 161, ΔE=-0.526 eV
Deletion accepted: atom 185, ΔE=-0.223 eV
Deletion accepted: atom 196, ΔE=-0.022 eV
Deletion accepted: atom 164, ΔE=-0.254 eV
Deletion accepted: atom 224, ΔE=-0.514 eV
Deletion accepted: atom 146, ΔE=-0.231 eV
Deletion accepted: atom 218, ΔE=-0.155 eV
Deletion accepted: atom 193, ΔE=-0.171 eV
Deletion accepted: atom 219, ΔE=-0.255 eV
Deletion accepted: atom 219, ΔE=-0.255 eV
Deletion accepted: atom 199, ΔE=-0.245 eV
Deletion accepted: atom 219, ΔE=-0.255 eV
Deletion accepted: atom 140, ΔE=-0.116 eV
Deletion accepted: atom 221, ΔE=-0.166 eV
Deletion accepted: atom 200, ΔE=-0.183 eV
Deletion accepted: atom 146, ΔE=-0.231 eV
Deletion accepted: atom 223, ΔE=-0.123 eV
Deletion accepted: atom 175, ΔE=-0.170 eV
Deletion accepted: atom 179, ΔE=-0.166 eV
Deletion accepted: atom 139, ΔE=-0.322 eV
Deletion accepted: atom 208, ΔE=0.064 eV
Deletion accepted: atom 127, ΔE=3.749 eV
Deletion accepted: atom 206, ΔE=-0.066 eV
Deletion accepted: atom 179, ΔE=-0.166 eV
Deletion accepted: atom 137, ΔE=-0.353 eV
Deletion accepted: atom 247, ΔE=-0.301 eV
Deletion accepted: atom 216, ΔE=-0.262 eV
Deletion accepted: atom 167, ΔE=-0.365 eV
Deletion accepted: atom 246, ΔE=-0.023 eV
Deletion accepted: atom 165, ΔE=-0.143 eV
Deletion accepted: atom 155, ΔE=-0.166 eV
Deletion accepted: atom 142, ΔE=-0.042 eV
Deletion accepted: atom 161, ΔE=-0.526 eV
Deletion accepted: atom 187, ΔE=-0.352 eV
Deletion accepted: atom 188, ΔE=-0.052 eV
Deletion accepted: atom 222, ΔE=-0.101 eV
Deletion accepted: atom 200, ΔE=-0.183 eV
Deletion accepted: atom 231, ΔE=-0.110 eV
Deletion accepted: atom 132, ΔE=-0.268 eV
GCMC: MD step 48, acceptance ratio = 0.38234
GCMC: Final number of atoms = 250
GCMC: Running 100 MC steps at temperature 300 K
GCMC: Current number of atoms = 250
GCMC step 0: atoms=250, acceptance_rate=0.382
Deletion accepted: atom 167, ΔE=-0.365 eV
Deletion accepted: atom 227, ΔE=-0.363 eV
Deletion accepted: atom 151, ΔE=-0.248 eV
Deletion accepted: atom 199, ΔE=-0.245 eV
Deletion accepted: atom 166, ΔE=-0.000 eV
Deletion accepted: atom 142, ΔE=-0.063 eV
Deletion accepted: atom 158, ΔE=-0.166 eV
Deletion accepted: atom 173, ΔE=-0.143 eV
Deletion accepted: atom 228, ΔE=-0.010 eV
Deletion accepted: atom 180, ΔE=-0.349 eV
Deletion accepted: atom 209, ΔE=-0.214 eV
Deletion accepted: atom 205, ΔE=0.203 eV
Deletion accepted: atom 170, ΔE=-0.399 eV
Deletion accepted: atom 219, ΔE=-0.255 eV
Deletion accepted: atom 232, ΔE=-0.295 eV
Deletion accepted: atom 243, ΔE=-0.003 eV
Deletion accepted: atom 182, ΔE=-0.146 eV
Deletion accepted: atom 166, ΔE=-0.000 eV
Deletion accepted: atom 181, ΔE=-0.251 eV
Deletion accepted: atom 209, ΔE=-0.214 eV
Deletion accepted: atom 227, ΔE=-0.363 eV
Deletion accepted: atom 248, ΔE=-0.094 eV
Deletion accepted: atom 155, ΔE=-0.166 eV
Deletion accepted: atom 221, ΔE=-0.166 eV
Deletion accepted: atom 154, ΔE=-0.022 eV
Deletion accepted: atom 167, ΔE=-0.365 eV
Deletion accepted: atom 167, ΔE=-0.365 eV
Deletion accepted: atom 208, ΔE=0.064 eV
Deletion accepted: atom 180, ΔE=-0.349 eV
Deletion accepted: atom 133, ΔE=-0.093 eV
Deletion accepted: atom 163, ΔE=-0.261 eV
Deletion accepted: atom 211, ΔE=-0.171 eV
Deletion accepted: atom 227, ΔE=-0.363 eV
GCMC: MD step 49, acceptance ratio = 0.382708
GCMC: Final number of atoms = 250
GCMC: Running 100 MC steps at temperature 300 K
GCMC: Current number of atoms = 250
GCMC step 0: atoms=250, acceptance_rate=0.383
Deletion accepted: atom 132, ΔE=-0.268 eV
Deletion accepted: atom 228, ΔE=-0.010 eV
Deletion accepted: atom 239, ΔE=-0.267 eV
Deletion accepted: atom 186, ΔE=-0.113 eV
Deletion accepted: atom 125, ΔE=-0.216 eV
Deletion accepted: atom 227, ΔE=-0.363 eV
Deletion accepted: atom 198, ΔE=-0.193 eV
Deletion accepted: atom 248, ΔE=-0.094 eV
Deletion accepted: atom 237, ΔE=-0.525 eV
Deletion accepted: atom 186, ΔE=-0.113 eV
Deletion accepted: atom 151, ΔE=-0.248 eV
Deletion accepted: atom 191, ΔE=-0.073 eV
Deletion accepted: atom 140, ΔE=-0.117 eV
Deletion accepted: atom 202, ΔE=-0.384 eV
Deletion accepted: atom 164, ΔE=-0.254 eV
Deletion accepted: atom 178, ΔE=-0.060 eV
Deletion accepted: atom 133, ΔE=-0.093 eV
Deletion accepted: atom 242, ΔE=-0.220 eV
Deletion accepted: atom 177, ΔE=-0.431 eV
Deletion accepted: atom 229, ΔE=-0.399 eV
Deletion accepted: atom 127, ΔE=-0.386 eV
Deletion accepted: atom 225, ΔE=-0.004 eV
Deletion accepted: atom 126, ΔE=0.372 eV
Deletion accepted: atom 143, ΔE=-0.332 eV
Deletion accepted: atom 126, ΔE=0.372 eV
Deletion accepted: atom 192, ΔE=-0.120 eV
Deletion accepted: atom 193, ΔE=-0.171 eV
Deletion accepted: atom 246, ΔE=-0.023 eV
Deletion accepted: atom 231, ΔE=-0.111 eV
Deletion accepted: atom 179, ΔE=-0.165 eV
Deletion accepted: atom 224, ΔE=-0.515 eV
Deletion accepted: atom 156, ΔE=-0.078 eV
Deletion accepted: atom 161, ΔE=-0.526 eV
Deletion accepted: atom 184, ΔE=-0.138 eV
Deletion accepted: atom 142, ΔE=-0.063 eV
GCMC: MD step 50, acceptance ratio = 0.383673
GCMC: Final number of atoms = 250
GCMC: Running 100 MC steps at temperature 300 K
GCMC: Current number of atoms = 250
GCMC step 0: atoms=250, acceptance_rate=0.384
Deletion accepted: atom 218, ΔE=-0.155 eV
Deletion accepted: atom 156, ΔE=-0.078 eV
Deletion accepted: atom 234, ΔE=-0.311 eV
Deletion accepted: atom 181, ΔE=-0.251 eV
Deletion accepted: atom 191, ΔE=-0.073 eV
Deletion accepted: atom 135, ΔE=-0.113 eV
Deletion accepted: atom 181, ΔE=-0.251 eV
Deletion accepted: atom 169, ΔE=1.008 eV
Deletion accepted: atom 233, ΔE=-0.325 eV
Deletion accepted: atom 125, ΔE=-0.216 eV
Deletion accepted: atom 249, ΔE=-0.230 eV
Deletion accepted: atom 199, ΔE=-0.245 eV
Deletion accepted: atom 140, ΔE=-0.036 eV
Deletion accepted: atom 172, ΔE=2.548 eV
Deletion accepted: atom 193, ΔE=-0.171 eV
Deletion accepted: atom 139, ΔE=-0.321 eV
Deletion accepted: atom 171, ΔE=-0.106 eV
Deletion accepted: atom 218, ΔE=-0.155 eV
Deletion accepted: atom 220, ΔE=-0.358 eV
Deletion accepted: atom 220, ΔE=-0.357 eV
Deletion accepted: atom 189, ΔE=-0.177 eV
Deletion accepted: atom 227, ΔE=-0.363 eV
Deletion accepted: atom 222, ΔE=-0.101 eV
Deletion accepted: atom 199, ΔE=-0.245 eV
Deletion accepted: atom 199, ΔE=-0.245 eV
Deletion accepted: atom 196, ΔE=-0.023 eV
Deletion accepted: atom 246, ΔE=-0.073 eV
Deletion accepted: atom 242, ΔE=-0.222 eV
Deletion accepted: atom 182, ΔE=-0.140 eV
Deletion accepted: atom 168, ΔE=-0.109 eV
Deletion accepted: atom 204, ΔE=-0.029 eV
Deletion accepted: atom 245, ΔE=-0.399 eV
Deletion accepted: atom 201, ΔE=-0.272 eV
Deletion accepted: atom 165, ΔE=-0.230 eV
GCMC: MD step 51, acceptance ratio = 0.3852
GCMC: Final number of atoms = 250
    50 steps completed.
GCMC: Running 100 MC steps at temperature 300 K
GCMC: Current number of atoms = 250
Deletion accepted: atom 194, ΔE=-0.017 eV
GCMC step 0: atoms=250, acceptance_rate=0.385
Deletion accepted: atom 212, ΔE=-0.335 eV
Deletion accepted: atom 162, ΔE=-0.141 eV
Deletion accepted: atom 249, ΔE=2.186 eV
Deletion accepted: atom 205, ΔE=0.227 eV
Deletion accepted: atom 246, ΔE=-0.073 eV
Deletion accepted: atom 240, ΔE=-0.011 eV
Deletion accepted: atom 241, ΔE=-0.097 eV
Deletion accepted: atom 194, ΔE=-0.017 eV
Deletion accepted: atom 182, ΔE=-0.140 eV
Deletion accepted: atom 218, ΔE=-0.155 eV
Deletion accepted: atom 125, ΔE=-0.216 eV
Deletion accepted: atom 246, ΔE=-0.073 eV
Deletion accepted: atom 129, ΔE=-0.155 eV
Deletion accepted: atom 218, ΔE=-0.155 eV
Deletion accepted: atom 193, ΔE=-0.171 eV
Deletion accepted: atom 177, ΔE=-0.431 eV
Deletion accepted: atom 179, ΔE=-0.165 eV
Deletion accepted: atom 224, ΔE=-0.492 eV
Deletion accepted: atom 249, ΔE=2.257 eV
Deletion accepted: atom 188, ΔE=-0.182 eV
Deletion accepted: atom 141, ΔE=-0.236 eV
Deletion accepted: atom 216, ΔE=-0.262 eV
Deletion accepted: atom 163, ΔE=-0.281 eV
Deletion accepted: atom 153, ΔE=-0.304 eV
Deletion accepted: atom 137, ΔE=-0.353 eV
Deletion accepted: atom 197, ΔE=-0.208 eV
Deletion accepted: atom 227, ΔE=-0.363 eV
Deletion accepted: atom 161, ΔE=-0.526 eV
Deletion accepted: atom 208, ΔE=0.062 eV
Deletion accepted: atom 170, ΔE=-0.401 eV
Deletion accepted: atom 248, ΔE=-0.094 eV
Deletion accepted: atom 191, ΔE=-0.068 eV
Deletion accepted: atom 208, ΔE=0.062 eV
GCMC: MD step 52, acceptance ratio = 0.385882
GCMC: Final number of atoms = 250
GCMC: Running 100 MC steps at temperature 300 K
GCMC: Current number of atoms = 250
Deletion accepted: atom 188, ΔE=-0.182 eV
GCMC step 0: atoms=250, acceptance_rate=0.386
Deletion accepted: atom 227, ΔE=-0.363 eV
Deletion accepted: atom 206, ΔE=-0.066 eV
Deletion accepted: atom 206, ΔE=-0.066 eV
Deletion accepted: atom 164, ΔE=-0.238 eV
Deletion accepted: atom 215, ΔE=-0.405 eV
Deletion accepted: atom 184, ΔE=-0.139 eV
Deletion accepted: atom 185, ΔE=-0.238 eV
Deletion accepted: atom 215, ΔE=-0.405 eV
Deletion accepted: atom 184, ΔE=-0.139 eV
Deletion accepted: atom 197, ΔE=-0.207 eV
Deletion accepted: atom 225, ΔE=-0.006 eV
Deletion accepted: atom 220, ΔE=-0.358 eV
Deletion accepted: atom 129, ΔE=-0.155 eV
Deletion accepted: atom 167, ΔE=-0.365 eV
Deletion accepted: atom 173, ΔE=-0.209 eV
Deletion accepted: atom 196, ΔE=-0.023 eV
Deletion accepted: atom 167, ΔE=-0.365 eV
Deletion accepted: atom 187, ΔE=-0.355 eV
Deletion accepted: atom 167, ΔE=-0.365 eV
Deletion accepted: atom 167, ΔE=-0.365 eV
Deletion accepted: atom 203, ΔE=-0.139 eV
Deletion accepted: atom 201, ΔE=-0.272 eV
Deletion accepted: atom 149, ΔE=-0.270 eV
Deletion accepted: atom 165, ΔE=-0.236 eV
Deletion accepted: atom 136, ΔE=-0.340 eV
Deletion accepted: atom 198, ΔE=-0.199 eV
Deletion accepted: atom 191, ΔE=-0.077 eV
Deletion accepted: atom 245, ΔE=-0.400 eV
Deletion accepted: atom 154, ΔE=-0.069 eV
Deletion accepted: atom 197, ΔE=-0.207 eV
Deletion accepted: atom 144, ΔE=-0.447 eV
Deletion accepted: atom 139, ΔE=-0.328 eV
Deletion accepted: atom 161, ΔE=-0.526 eV
Deletion accepted: atom 239, ΔE=-0.268 eV
Deletion accepted: atom 173, ΔE=-0.209 eV
GCMC: MD step 53, acceptance ratio = 0.387692
GCMC: Final number of atoms = 250
GCMC: Running 100 MC steps at temperature 300 K
GCMC: Current number of atoms = 250
GCMC step 0: atoms=250, acceptance_rate=0.388
Deletion accepted: atom 216, ΔE=-0.262 eV
Deletion accepted: atom 126, ΔE=-0.174 eV
Deletion accepted: atom 218, ΔE=-0.153 eV
Deletion accepted: atom 152, ΔE=-0.591 eV
Deletion accepted: atom 220, ΔE=-0.359 eV
Deletion accepted: atom 233, ΔE=-0.358 eV
Deletion accepted: atom 196, ΔE=-0.010 eV
Deletion accepted: atom 199, ΔE=-0.270 eV
Deletion accepted: atom 157, ΔE=-0.448 eV
Deletion accepted: atom 234, ΔE=-0.311 eV
Deletion accepted: atom 147, ΔE=-0.163 eV
Deletion accepted: atom 184, ΔE=-0.139 eV
Deletion accepted: atom 169, ΔE=-0.268 eV
Deletion accepted: atom 243, ΔE=-0.008 eV
Deletion accepted: atom 199, ΔE=-0.270 eV
Deletion accepted: atom 137, ΔE=-0.353 eV
Deletion accepted: atom 156, ΔE=-0.078 eV
Deletion accepted: atom 161, ΔE=-0.526 eV
Deletion accepted: atom 141, ΔE=-0.236 eV
Deletion accepted: atom 156, ΔE=-0.078 eV
Deletion accepted: atom 237, ΔE=-0.527 eV
Deletion accepted: atom 194, ΔE=-0.017 eV
Deletion accepted: atom 151, ΔE=-0.308 eV
Deletion accepted: atom 167, ΔE=-0.365 eV
Deletion accepted: atom 200, ΔE=-0.174 eV
Deletion accepted: atom 197, ΔE=-0.207 eV
Deletion accepted: atom 202, ΔE=-0.306 eV
Deletion accepted: atom 220, ΔE=-0.328 eV
Deletion accepted: atom 234, ΔE=-0.311 eV
Deletion accepted: atom 157, ΔE=-0.448 eV
Deletion accepted: atom 170, ΔE=-0.429 eV
Deletion accepted: atom 144, ΔE=-0.447 eV
Deletion accepted: atom 241, ΔE=-0.097 eV
Deletion accepted: atom 129, ΔE=-0.155 eV
Deletion accepted: atom 148, ΔE=-0.227 eV
Deletion accepted: atom 223, ΔE=-0.108 eV
Deletion accepted: atom 174, ΔE=-0.351 eV
GCMC: MD step 54, acceptance ratio = 0.389245
GCMC: Final number of atoms = 250
GCMC: Running 100 MC steps at temperature 300 K
GCMC: Current number of atoms = 250
GCMC step 0: atoms=250, acceptance_rate=0.389
Deletion accepted: atom 174, ΔE=-0.351 eV
Deletion accepted: atom 162, ΔE=-0.146 eV
Deletion accepted: atom 157, ΔE=-0.448 eV
Deletion accepted: atom 197, ΔE=-0.207 eV
Deletion accepted: atom 144, ΔE=-0.447 eV
Deletion accepted: atom 215, ΔE=-0.404 eV
Deletion accepted: atom 200, ΔE=-0.174 eV
Deletion accepted: atom 142, ΔE=-0.061 eV
Deletion accepted: atom 177, ΔE=-0.408 eV
Deletion accepted: atom 244, ΔE=-0.355 eV
Deletion accepted: atom 227, ΔE=-0.363 eV
Deletion accepted: atom 170, ΔE=-0.429 eV
Deletion accepted: atom 234, ΔE=-0.311 eV
Deletion accepted: atom 169, ΔE=-0.278 eV
Deletion accepted: atom 148, ΔE=-0.227 eV
Deletion accepted: atom 224, ΔE=-0.475 eV
Deletion accepted: atom 201, ΔE=-0.272 eV
Deletion accepted: atom 133, ΔE=-0.090 eV
Deletion accepted: atom 209, ΔE=-0.214 eV
Deletion accepted: atom 229, ΔE=-0.179 eV
Deletion accepted: atom 185, ΔE=-0.238 eV
Deletion accepted: atom 192, ΔE=-0.121 eV
Deletion accepted: atom 193, ΔE=-0.171 eV
Deletion accepted: atom 172, ΔE=2.559 eV
Deletion accepted: atom 181, ΔE=-0.250 eV
Deletion accepted: atom 158, ΔE=-0.126 eV
Deletion accepted: atom 185, ΔE=-0.238 eV
Deletion accepted: atom 236, ΔE=-0.158 eV
Deletion accepted: atom 220, ΔE=-0.328 eV
Deletion accepted: atom 182, ΔE=-0.127 eV
Deletion accepted: atom 200, ΔE=-0.174 eV
Deletion accepted: atom 238, ΔE=-0.094 eV
Deletion accepted: atom 217, ΔE=-0.304 eV
Deletion accepted: atom 146, ΔE=-0.193 eV
Deletion accepted: atom 171, ΔE=-0.093 eV
GCMC: MD step 55, acceptance ratio = 0.38963
GCMC: Final number of atoms = 250
GCMC: Running 100 MC steps at temperature 300 K
GCMC: Current number of atoms = 250
Deletion accepted: atom 248, ΔE=-0.097 eV
GCMC step 0: atoms=250, acceptance_rate=0.390
Deletion accepted: atom 210, ΔE=-0.309 eV
Deletion accepted: atom 244, ΔE=-0.355 eV
Deletion accepted: atom 198, ΔE=-0.192 eV
Deletion accepted: atom 249, ΔE=2.260 eV
Deletion accepted: atom 148, ΔE=-0.227 eV
Deletion accepted: atom 220, ΔE=-0.329 eV
Deletion accepted: atom 227, ΔE=-0.363 eV
Deletion accepted: atom 234, ΔE=-0.311 eV
Deletion accepted: atom 154, ΔE=-0.069 eV
Deletion accepted: atom 166, ΔE=-0.000 eV
Deletion accepted: atom 220, ΔE=-0.329 eV
Deletion accepted: atom 208, ΔE=0.142 eV
Deletion accepted: atom 126, ΔE=-0.181 eV
Deletion accepted: atom 133, ΔE=-0.090 eV
Deletion accepted: atom 151, ΔE=-0.308 eV
Deletion accepted: atom 144, ΔE=-0.457 eV
Deletion accepted: atom 179, ΔE=-0.149 eV
Deletion accepted: atom 204, ΔE=-0.037 eV
Deletion accepted: atom 209, ΔE=-0.230 eV
Deletion accepted: atom 229, ΔE=-0.179 eV
Deletion accepted: atom 130, ΔE=-0.132 eV
Deletion accepted: atom 190, ΔE=-0.240 eV
Deletion accepted: atom 156, ΔE=-0.078 eV
Deletion accepted: atom 166, ΔE=-0.000 eV
Deletion accepted: atom 220, ΔE=-0.329 eV
Deletion accepted: atom 182, ΔE=-0.126 eV
Deletion accepted: atom 157, ΔE=-0.475 eV
Deletion accepted: atom 247, ΔE=-0.199 eV
Deletion accepted: atom 176, ΔE=-0.212 eV
Deletion accepted: atom 232, ΔE=-0.300 eV
Deletion accepted: atom 239, ΔE=-0.258 eV
Deletion accepted: atom 232, ΔE=-0.300 eV
Deletion accepted: atom 136, ΔE=-0.337 eV
Deletion accepted: atom 149, ΔE=-0.265 eV
Deletion accepted: atom 236, ΔE=-0.159 eV
Deletion accepted: atom 161, ΔE=-0.526 eV
Deletion accepted: atom 168, ΔE=-0.109 eV
Deletion accepted: atom 176, ΔE=-0.212 eV
GCMC: MD step 56, acceptance ratio = 0.391091
GCMC: Final number of atoms = 250
GCMC: Running 100 MC steps at temperature 300 K
GCMC: Current number of atoms = 250
GCMC step 0: atoms=250, acceptance_rate=0.391
Deletion accepted: atom 224, ΔE=-0.476 eV
Deletion accepted: atom 223, ΔE=-0.109 eV
Deletion accepted: atom 145, ΔE=-0.380 eV
Deletion accepted: atom 184, ΔE=-0.196 eV
Deletion accepted: atom 152, ΔE=-0.573 eV
Deletion accepted: atom 249, ΔE=2.259 eV
Deletion accepted: atom 147, ΔE=-0.253 eV
Deletion accepted: atom 181, ΔE=-0.235 eV
Deletion accepted: atom 153, ΔE=-0.304 eV
Deletion accepted: atom 198, ΔE=-0.192 eV
Deletion accepted: atom 166, ΔE=-0.001 eV
Deletion accepted: atom 197, ΔE=-0.207 eV
Deletion accepted: atom 135, ΔE=-0.113 eV
Deletion accepted: atom 245, ΔE=-0.403 eV
Deletion accepted: atom 216, ΔE=-0.266 eV
Deletion accepted: atom 173, ΔE=-0.208 eV
Deletion accepted: atom 156, ΔE=-0.078 eV
Deletion accepted: atom 146, ΔE=-0.193 eV
Deletion accepted: atom 224, ΔE=-0.476 eV
Deletion accepted: atom 237, ΔE=-0.548 eV
Deletion accepted: atom 192, ΔE=-0.121 eV
Deletion accepted: atom 192, ΔE=-0.121 eV
Deletion accepted: atom 221, ΔE=-0.162 eV
Deletion accepted: atom 239, ΔE=-0.258 eV
Deletion accepted: atom 169, ΔE=-0.278 eV
Deletion accepted: atom 213, ΔE=-0.153 eV
Deletion accepted: atom 180, ΔE=-0.348 eV
Deletion accepted: atom 179, ΔE=-0.157 eV
Deletion accepted: atom 218, ΔE=-0.153 eV
Deletion accepted: atom 155, ΔE=-0.218 eV
Deletion accepted: atom 156, ΔE=-0.078 eV
Deletion accepted: atom 183, ΔE=-0.016 eV
GCMC: MD step 57, acceptance ratio = 0.391071
GCMC: Final number of atoms = 250
GCMC: Running 100 MC steps at temperature 300 K
GCMC: Current number of atoms = 250
GCMC step 0: atoms=250, acceptance_rate=0.391
Deletion accepted: atom 210, ΔE=-0.309 eV
Deletion accepted: atom 182, ΔE=-0.126 eV
Deletion accepted: atom 228, ΔE=-0.009 eV
Deletion accepted: atom 153, ΔE=-0.304 eV
Deletion accepted: atom 133, ΔE=-0.074 eV
Deletion accepted: atom 170, ΔE=-0.427 eV
Deletion accepted: atom 135, ΔE=-0.113 eV
Deletion accepted: atom 179, ΔE=-0.157 eV
Deletion accepted: atom 189, ΔE=-0.189 eV
Deletion accepted: atom 204, ΔE=-0.037 eV
Deletion accepted: atom 249, ΔE=2.261 eV
Deletion accepted: atom 244, ΔE=-0.268 eV
Deletion accepted: atom 223, ΔE=-0.107 eV
Deletion accepted: atom 215, ΔE=-0.407 eV
Deletion accepted: atom 141, ΔE=-0.255 eV
Deletion accepted: atom 186, ΔE=-0.111 eV
Deletion accepted: atom 206, ΔE=-0.066 eV
Deletion accepted: atom 206, ΔE=-0.066 eV
Deletion accepted: atom 246, ΔE=-0.014 eV
Deletion accepted: atom 209, ΔE=-0.230 eV
Deletion accepted: atom 238, ΔE=-0.094 eV
Deletion accepted: atom 207, ΔE=-0.503 eV
Deletion accepted: atom 165, ΔE=-0.226 eV
Deletion accepted: atom 136, ΔE=-0.336 eV
Deletion accepted: atom 127, ΔE=-0.386 eV
Deletion accepted: atom 213, ΔE=-0.153 eV
Deletion accepted: atom 181, ΔE=-0.235 eV
Deletion accepted: atom 143, ΔE=-0.277 eV
Deletion accepted: atom 211, ΔE=-0.172 eV
Deletion accepted: atom 203, ΔE=-0.121 eV
Deletion accepted: atom 212, ΔE=-0.318 eV
Deletion accepted: atom 155, ΔE=-0.218 eV
Deletion accepted: atom 203, ΔE=-0.121 eV
Deletion accepted: atom 247, ΔE=-0.199 eV
GCMC: MD step 58, acceptance ratio = 0.391579
GCMC: Final number of atoms = 250
GCMC: Running 100 MC steps at temperature 300 K
GCMC: Current number of atoms = 250
Deletion accepted: atom 185, ΔE=-0.238 eV
GCMC step 0: atoms=250, acceptance_rate=0.392
Deletion accepted: atom 151, ΔE=-0.305 eV
Deletion accepted: atom 234, ΔE=-0.309 eV
Deletion accepted: atom 156, ΔE=-0.078 eV
Deletion accepted: atom 185, ΔE=-0.238 eV
Deletion accepted: atom 222, ΔE=-0.095 eV
Deletion accepted: atom 183, ΔE=-0.016 eV
Deletion accepted: atom 160, ΔE=-0.271 eV
Deletion accepted: atom 161, ΔE=-0.526 eV
Deletion accepted: atom 151, ΔE=-0.305 eV
Deletion accepted: atom 162, ΔE=-0.130 eV
Deletion accepted: atom 147, ΔE=-0.300 eV
Deletion accepted: atom 148, ΔE=-0.227 eV
Deletion accepted: atom 165, ΔE=-0.226 eV
Deletion accepted: atom 194, ΔE=-0.221 eV
Deletion accepted: atom 188, ΔE=-0.185 eV
Deletion accepted: atom 245, ΔE=-0.403 eV
Deletion accepted: atom 174, ΔE=-0.385 eV
Deletion accepted: atom 143, ΔE=-0.276 eV
Deletion accepted: atom 227, ΔE=-0.363 eV
Deletion accepted: atom 183, ΔE=-0.016 eV
Deletion accepted: atom 245, ΔE=-0.403 eV
Deletion accepted: atom 161, ΔE=-0.526 eV
Deletion accepted: atom 125, ΔE=-0.216 eV
Deletion accepted: atom 219, ΔE=-0.251 eV
Deletion accepted: atom 152, ΔE=-0.555 eV
Deletion accepted: atom 133, ΔE=-0.074 eV
Deletion accepted: atom 148, ΔE=-0.227 eV
Deletion accepted: atom 145, ΔE=-0.380 eV
Deletion accepted: atom 232, ΔE=-0.300 eV
Deletion accepted: atom 141, ΔE=-0.255 eV
Deletion accepted: atom 230, ΔE=-0.272 eV
Deletion accepted: atom 246, ΔE=-0.014 eV
[...]
Deletion accepted: atom 132, ΔE=-0.255 eV
Deletion accepted: atom 195, ΔE=-0.185 eV
Deletion accepted: atom 205, ΔE=-0.618 eV
Deletion accepted: atom 188, ΔE=-0.185 eV
Deletion accepted: atom 141, ΔE=-0.302 eV
Deletion accepted: atom 240, ΔE=-0.363 eV
Deletion accepted: atom 223, ΔE=-0.134 eV
Deletion accepted: atom 209, ΔE=-0.237 eV
Deletion accepted: atom 127, ΔE=-0.358 eV
Deletion accepted: atom 240, ΔE=-0.363 eV
Deletion accepted: atom 142, ΔE=-0.249 eV
Deletion accepted: atom 138, ΔE=-0.360 eV
Deletion accepted: atom 217, ΔE=-0.363 eV
Deletion accepted: atom 184, ΔE=-0.150 eV
Deletion accepted: atom 203, ΔE=-0.243 eV
GCMC: MD step 90, acceptance ratio = 0.397191
GCMC: Final number of atoms = 250
GCMC: Running 100 MC steps at temperature 300 K
GCMC: Current number of atoms = 250
GCMC step 0: atoms=250, acceptance_rate=0.397
Deletion accepted: atom 200, ΔE=-0.274 eV
Deletion accepted: atom 164, ΔE=-0.244 eV
Deletion accepted: atom 248, ΔE=-0.211 eV
Deletion accepted: atom 138, ΔE=-0.360 eV
Deletion accepted: atom 180, ΔE=-0.436 eV
Deletion accepted: atom 200, ΔE=-0.274 eV
Deletion accepted: atom 207, ΔE=-0.532 eV
Deletion accepted: atom 168, ΔE=-0.149 eV
Deletion accepted: atom 182, ΔE=-0.452 eV
Deletion accepted: atom 144, ΔE=-0.489 eV
Deletion accepted: atom 249, ΔE=-0.433 eV
Deletion accepted: atom 191, ΔE=-0.076 eV
Deletion accepted: atom 167, ΔE=-0.427 eV
Deletion accepted: atom 176, ΔE=-0.216 eV
Deletion accepted: atom 198, ΔE=-0.312 eV
Deletion accepted: atom 148, ΔE=-0.218 eV
Deletion accepted: atom 157, ΔE=-0.433 eV
Deletion accepted: atom 131, ΔE=2.632 eV
Deletion accepted: atom 245, ΔE=-0.609 eV
Deletion accepted: atom 128, ΔE=-0.128 eV
Deletion accepted: atom 209, ΔE=-0.237 eV
Deletion accepted: atom 221, ΔE=-0.115 eV
Deletion accepted: atom 180, ΔE=-0.436 eV
Deletion accepted: atom 192, ΔE=-0.163 eV
Deletion accepted: atom 184, ΔE=-0.150 eV
Deletion accepted: atom 214, ΔE=-0.272 eV
Deletion accepted: atom 216, ΔE=-0.223 eV
Deletion accepted: atom 230, ΔE=-0.272 eV
Deletion accepted: atom 200, ΔE=-0.274 eV
Deletion accepted: atom 194, ΔE=-0.223 eV
Deletion accepted: atom 212, ΔE=-0.315 eV
Deletion accepted: atom 188, ΔE=-0.185 eV
Deletion accepted: atom 126, ΔE=-0.177 eV
Deletion accepted: atom 167, ΔE=-0.427 eV
Deletion accepted: atom 221, ΔE=-0.115 eV
Deletion accepted: atom 153, ΔE=-0.309 eV
Deletion accepted: atom 146, ΔE=-0.209 eV
Deletion accepted: atom 184, ΔE=-0.150 eV
GCMC: MD step 91, acceptance ratio = 0.397778
GCMC: Final number of atoms = 250
    90 steps completed.
GCMC: Running 100 MC steps at temperature 300 K
GCMC: Current number of atoms = 250
Deletion accepted: atom 209, ΔE=-0.237 eV
GCMC step 0: atoms=250, acceptance_rate=0.398
Deletion accepted: atom 223, ΔE=-0.134 eV
Deletion accepted: atom 145, ΔE=-0.295 eV
Deletion accepted: atom 164, ΔE=-0.244 eV
Deletion accepted: atom 177, ΔE=-0.683 eV
Deletion accepted: atom 125, ΔE=-0.270 eV
Deletion accepted: atom 218, ΔE=-0.161 eV
Deletion accepted: atom 136, ΔE=-0.324 eV
Deletion accepted: atom 246, ΔE=-0.025 eV
Deletion accepted: atom 173, ΔE=-0.161 eV
Deletion accepted: atom 130, ΔE=-0.111 eV
Deletion accepted: atom 166, ΔE=-0.009 eV
Deletion accepted: atom 167, ΔE=-0.427 eV
Deletion accepted: atom 142, ΔE=-0.249 eV
Deletion accepted: atom 239, ΔE=-0.316 eV
Deletion accepted: atom 171, ΔE=-0.099 eV
Deletion accepted: atom 137, ΔE=-0.440 eV
Deletion accepted: atom 210, ΔE=-0.329 eV
Deletion accepted: atom 210, ΔE=-0.329 eV
Deletion accepted: atom 240, ΔE=-0.363 eV
Deletion accepted: atom 170, ΔE=-0.504 eV
Deletion accepted: atom 205, ΔE=-0.618 eV
Deletion accepted: atom 228, ΔE=-0.117 eV
Deletion accepted: atom 242, ΔE=-0.281 eV
Deletion accepted: atom 185, ΔE=-0.288 eV
Deletion accepted: atom 218, ΔE=-0.161 eV
Deletion accepted: atom 208, ΔE=-0.186 eV
Deletion accepted: atom 140, ΔE=-0.398 eV
Deletion accepted: atom 126, ΔE=-0.177 eV
Deletion accepted: atom 175, ΔE=-0.149 eV
Deletion accepted: atom 241, ΔE=-0.129 eV
Deletion accepted: atom 216, ΔE=-0.222 eV
Deletion accepted: atom 202, ΔE=-0.424 eV
Deletion accepted: atom 164, ΔE=-0.244 eV
Deletion accepted: atom 173, ΔE=-0.161 eV
Deletion accepted: atom 134, ΔE=-0.075 eV
Deletion accepted: atom 169, ΔE=-0.276 eV
GCMC: MD step 92, acceptance ratio = 0.398571
GCMC: Final number of atoms = 250
GCMC: Running 100 MC steps at temperature 300 K
GCMC: Current number of atoms = 250
Deletion accepted: atom 151, ΔE=-0.248 eV
GCMC step 0: atoms=250, acceptance_rate=0.399
Deletion accepted: atom 155, ΔE=-0.218 eV
Deletion accepted: atom 208, ΔE=-0.186 eV
Deletion accepted: atom 248, ΔE=-0.211 eV
Deletion accepted: atom 203, ΔE=-0.243 eV
Deletion accepted: atom 178, ΔE=-0.079 eV
Deletion accepted: atom 197, ΔE=-0.229 eV
Deletion accepted: atom 172, ΔE=-0.356 eV
Deletion accepted: atom 139, ΔE=-0.469 eV
Deletion accepted: atom 185, ΔE=-0.288 eV
Deletion accepted: atom 224, ΔE=-0.437 eV
Deletion accepted: atom 140, ΔE=-0.398 eV
Deletion accepted: atom 192, ΔE=-0.207 eV
Deletion accepted: atom 184, ΔE=-0.150 eV
Deletion accepted: atom 126, ΔE=-0.189 eV
Deletion accepted: atom 130, ΔE=-0.111 eV
Deletion accepted: atom 181, ΔE=-0.266 eV
Deletion accepted: atom 190, ΔE=-0.225 eV
Deletion accepted: atom 231, ΔE=-0.112 eV
Deletion accepted: atom 158, ΔE=-0.111 eV
Deletion accepted: atom 184, ΔE=-0.150 eV
Deletion accepted: atom 188, ΔE=-0.185 eV
Deletion accepted: atom 220, ΔE=-0.384 eV
Deletion accepted: atom 222, ΔE=-0.182 eV
Deletion accepted: atom 141, ΔE=-0.290 eV
Deletion accepted: atom 156, ΔE=-0.077 eV
Deletion accepted: atom 247, ΔE=-0.200 eV
Deletion accepted: atom 183, ΔE=-0.192 eV
Deletion accepted: atom 221, ΔE=-0.115 eV
Deletion accepted: atom 192, ΔE=-0.207 eV
GCMC: MD step 93, acceptance ratio = 0.398587
GCMC: Final number of atoms = 250
GCMC: Running 100 MC steps at temperature 300 K
GCMC: Current number of atoms = 250
Deletion accepted: atom 204, ΔE=-0.186 eV
GCMC step 0: atoms=250, acceptance_rate=0.399
Deletion accepted: atom 164, ΔE=-0.244 eV
Deletion accepted: atom 198, ΔE=-0.282 eV
Deletion accepted: atom 145, ΔE=-0.295 eV
Deletion accepted: atom 156, ΔE=-0.077 eV
Deletion accepted: atom 176, ΔE=-0.206 eV
Deletion accepted: atom 176, ΔE=-0.206 eV
Deletion accepted: atom 149, ΔE=-0.180 eV
Deletion accepted: atom 222, ΔE=-0.178 eV
Deletion accepted: atom 186, ΔE=-0.100 eV
Deletion accepted: atom 201, ΔE=-0.294 eV
Deletion accepted: atom 239, ΔE=-0.316 eV
Deletion accepted: atom 181, ΔE=-0.266 eV
Deletion accepted: atom 207, ΔE=-0.542 eV
Deletion accepted: atom 168, ΔE=-0.149 eV
Deletion accepted: atom 174, ΔE=-0.446 eV
Deletion accepted: atom 164, ΔE=-0.244 eV
Deletion accepted: atom 182, ΔE=-0.454 eV
Deletion accepted: atom 208, ΔE=-0.184 eV
Deletion accepted: atom 198, ΔE=-0.282 eV
Deletion accepted: atom 173, ΔE=-0.141 eV
Deletion accepted: atom 207, ΔE=-0.542 eV
Deletion accepted: atom 197, ΔE=-0.229 eV
Deletion accepted: atom 246, ΔE=-0.025 eV
Deletion accepted: atom 226, ΔE=-0.000 eV
Deletion accepted: atom 224, ΔE=-0.438 eV
Deletion accepted: atom 193, ΔE=-0.221 eV
Deletion accepted: atom 207, ΔE=-0.542 eV
Deletion accepted: atom 226, ΔE=-0.000 eV
Deletion accepted: atom 152, ΔE=-0.553 eV
Deletion accepted: atom 133, ΔE=-0.043 eV
Deletion accepted: atom 205, ΔE=-0.639 eV
Deletion accepted: atom 167, ΔE=-0.460 eV
Deletion accepted: atom 223, ΔE=-0.133 eV
GCMC: MD step 94, acceptance ratio = 0.398387
GCMC: Final number of atoms = 250
GCMC: Running 100 MC steps at temperature 300 K
GCMC: Current number of atoms = 250
GCMC step 0: atoms=250, acceptance_rate=0.398
Deletion accepted: atom 187, ΔE=-0.251 eV
Deletion accepted: atom 177, ΔE=-0.684 eV
Deletion accepted: atom 198, ΔE=-0.282 eV
Deletion accepted: atom 227, ΔE=-0.509 eV
Deletion accepted: atom 154, ΔE=-0.508 eV
Deletion accepted: atom 137, ΔE=-0.418 eV
Deletion accepted: atom 222, ΔE=-0.178 eV
Deletion accepted: atom 234, ΔE=-0.445 eV
Deletion accepted: atom 192, ΔE=-0.303 eV
Deletion accepted: atom 132, ΔE=-0.304 eV
Deletion accepted: atom 156, ΔE=-0.077 eV
Deletion accepted: atom 134, ΔE=-0.075 eV
Deletion accepted: atom 247, ΔE=-0.202 eV
Deletion accepted: atom 127, ΔE=-0.384 eV
Deletion accepted: atom 237, ΔE=2.478 eV
Deletion accepted: atom 132, ΔE=-0.304 eV
Deletion accepted: atom 186, ΔE=-0.100 eV
Deletion accepted: atom 204, ΔE=-0.186 eV
Deletion accepted: atom 160, ΔE=-0.440 eV
Deletion accepted: atom 148, ΔE=-0.219 eV
Deletion accepted: atom 153, ΔE=-0.309 eV
Deletion accepted: atom 179, ΔE=-0.276 eV
Deletion accepted: atom 164, ΔE=-0.245 eV
Deletion accepted: atom 136, ΔE=-0.324 eV
Deletion accepted: atom 188, ΔE=-0.185 eV
Deletion accepted: atom 156, ΔE=-0.077 eV
Deletion accepted: atom 164, ΔE=-0.245 eV
Deletion accepted: atom 208, ΔE=-0.184 eV
Deletion accepted: atom 229, ΔE=-0.287 eV
Deletion accepted: atom 190, ΔE=-0.225 eV
Deletion accepted: atom 203, ΔE=-0.243 eV
Deletion accepted: atom 190, ΔE=-0.225 eV
Deletion accepted: atom 164, ΔE=-0.245 eV
Deletion accepted: atom 234, ΔE=-0.445 eV
GCMC: MD step 95, acceptance ratio = 0.398298
GCMC: Final number of atoms = 250
GCMC: Running 100 MC steps at temperature 300 K
GCMC: Current number of atoms = 250
GCMC step 0: atoms=250, acceptance_rate=0.398
Deletion accepted: atom 190, ΔE=-0.225 eV
Deletion accepted: atom 240, ΔE=-0.346 eV
Deletion accepted: atom 177, ΔE=-0.683 eV
Deletion accepted: atom 190, ΔE=-0.225 eV
Deletion accepted: atom 183, ΔE=-0.192 eV
Deletion accepted: atom 242, ΔE=-0.283 eV
Deletion accepted: atom 215, ΔE=-0.426 eV
Deletion accepted: atom 203, ΔE=-0.243 eV
Deletion accepted: atom 125, ΔE=-0.270 eV
Deletion accepted: atom 211, ΔE=-0.175 eV
Deletion accepted: atom 183, ΔE=-0.192 eV
Deletion accepted: atom 215, ΔE=-0.426 eV
Deletion accepted: atom 155, ΔE=-0.218 eV
Deletion accepted: atom 242, ΔE=-0.283 eV
Deletion accepted: atom 217, ΔE=-0.393 eV
Deletion accepted: atom 211, ΔE=-0.175 eV
Deletion accepted: atom 170, ΔE=-0.505 eV
Deletion accepted: atom 158, ΔE=-0.111 eV
Deletion accepted: atom 233, ΔE=-0.369 eV
Deletion accepted: atom 147, ΔE=-0.183 eV
Deletion accepted: atom 152, ΔE=-0.553 eV
Deletion accepted: atom 146, ΔE=-0.209 eV
Deletion accepted: atom 125, ΔE=-0.270 eV
Deletion accepted: atom 238, ΔE=-0.015 eV
Deletion accepted: atom 156, ΔE=-0.077 eV
Deletion accepted: atom 216, ΔE=-0.228 eV
Deletion accepted: atom 149, ΔE=-0.178 eV
Deletion accepted: atom 142, ΔE=-0.249 eV
Deletion accepted: atom 228, ΔE=-0.075 eV
Deletion accepted: atom 192, ΔE=-0.303 eV
Deletion accepted: atom 196, ΔE=-0.004 eV
Deletion accepted: atom 145, ΔE=-0.295 eV
Deletion accepted: atom 131, ΔE=1.747 eV
Deletion accepted: atom 185, ΔE=-0.313 eV
Deletion accepted: atom 190, ΔE=-0.225 eV
Deletion accepted: atom 233, ΔE=-0.369 eV
Deletion accepted: atom 186, ΔE=-0.100 eV
Deletion accepted: atom 150, ΔE=-0.530 eV
GCMC: MD step 96, acceptance ratio = 0.398632
GCMC: Final number of atoms = 250
GCMC: Running 100 MC steps at temperature 300 K
GCMC: Current number of atoms = 250
GCMC step 0: atoms=250, acceptance_rate=0.399
Deletion accepted: atom 200, ΔE=-0.285 eV
Deletion accepted: atom 188, ΔE=-0.185 eV
Deletion accepted: atom 150, ΔE=-0.530 eV
Deletion accepted: atom 128, ΔE=-0.076 eV
Deletion accepted: atom 194, ΔE=-0.227 eV
Deletion accepted: atom 244, ΔE=-0.237 eV
Deletion accepted: atom 200, ΔE=-0.284 eV
Deletion accepted: atom 205, ΔE=-0.639 eV
Deletion accepted: atom 134, ΔE=-0.075 eV
Deletion accepted: atom 245, ΔE=-0.626 eV
Deletion accepted: atom 200, ΔE=-0.284 eV
Deletion accepted: atom 164, ΔE=-0.245 eV
Deletion accepted: atom 231, ΔE=-0.113 eV
Deletion accepted: atom 166, ΔE=-0.009 eV
Deletion accepted: atom 192, ΔE=-0.304 eV
Deletion accepted: atom 148, ΔE=-0.219 eV
Deletion accepted: atom 187, ΔE=-0.251 eV
Deletion accepted: atom 237, ΔE=-0.424 eV
Deletion accepted: atom 238, ΔE=-0.015 eV
Deletion accepted: atom 246, ΔE=-0.034 eV
Deletion accepted: atom 141, ΔE=-0.289 eV
Deletion accepted: atom 161, ΔE=-0.527 eV
Deletion accepted: atom 148, ΔE=-0.219 eV
Deletion accepted: atom 168, ΔE=-0.146 eV
Deletion accepted: atom 206, ΔE=-0.063 eV
Deletion accepted: atom 238, ΔE=-0.062 eV
Deletion accepted: atom 146, ΔE=-0.209 eV
Deletion accepted: atom 196, ΔE=-0.004 eV
GCMC: MD step 97, acceptance ratio = 0.398646
GCMC: Final number of atoms = 250
GCMC: Running 100 MC steps at temperature 300 K
GCMC: Current number of atoms = 250
GCMC step 0: atoms=250, acceptance_rate=0.399
Deletion accepted: atom 131, ΔE=1.747 eV
Deletion accepted: atom 145, ΔE=-0.294 eV
Deletion accepted: atom 230, ΔE=-0.272 eV
Deletion accepted: atom 176, ΔE=-0.207 eV
Deletion accepted: atom 198, ΔE=-0.282 eV
Deletion accepted: atom 238, ΔE=-0.062 eV
Deletion accepted: atom 160, ΔE=-0.440 eV
Deletion accepted: atom 222, ΔE=-0.178 eV
Deletion accepted: atom 176, ΔE=-0.207 eV
Deletion accepted: atom 159, ΔE=-0.701 eV
Deletion accepted: atom 171, ΔE=-0.099 eV
Deletion accepted: atom 166, ΔE=-0.009 eV
Deletion accepted: atom 207, ΔE=-0.546 eV
Deletion accepted: atom 127, ΔE=-0.384 eV
Deletion accepted: atom 244, ΔE=-0.237 eV
Deletion accepted: atom 174, ΔE=-0.446 eV
Deletion accepted: atom 242, ΔE=-0.283 eV
Deletion accepted: atom 189, ΔE=-0.472 eV
Deletion accepted: atom 127, ΔE=-0.384 eV
Deletion accepted: atom 248, ΔE=-0.211 eV
Deletion accepted: atom 238, ΔE=-0.062 eV
Deletion accepted: atom 169, ΔE=-0.262 eV
Deletion accepted: atom 148, ΔE=-0.219 eV
Deletion accepted: atom 181, ΔE=-0.265 eV
Deletion accepted: atom 168, ΔE=-0.146 eV
Deletion accepted: atom 158, ΔE=-0.118 eV
Deletion accepted: atom 147, ΔE=-0.183 eV
Deletion accepted: atom 197, ΔE=-0.229 eV
Deletion accepted: atom 160, ΔE=-0.440 eV
Deletion accepted: atom 157, ΔE=-0.375 eV
Deletion accepted: atom 229, ΔE=-0.286 eV
Deletion accepted: atom 222, ΔE=-0.178 eV
Deletion accepted: atom 208, ΔE=-0.190 eV
Deletion accepted: atom 182, ΔE=-0.454 eV
Deletion accepted: atom 221, ΔE=-0.063 eV
Deletion accepted: atom 127, ΔE=-0.384 eV
Deletion accepted: atom 200, ΔE=-0.284 eV
Deletion accepted: atom 182, ΔE=-0.454 eV
Deletion accepted: atom 199, ΔE=-0.216 eV
Deletion accepted: atom 127, ΔE=-0.384 eV
Deletion accepted: atom 127, ΔE=-0.384 eV
GCMC: MD step 98, acceptance ratio = 0.399175
GCMC: Final number of atoms = 250
GCMC: Running 100 MC steps at temperature 300 K
GCMC: Current number of atoms = 250
GCMC step 0: atoms=250, acceptance_rate=0.399
Deletion accepted: atom 148, ΔE=-0.219 eV
Deletion accepted: atom 164, ΔE=-0.245 eV
Deletion accepted: atom 132, ΔE=-0.311 eV
Deletion accepted: atom 195, ΔE=1.781 eV
Deletion accepted: atom 160, ΔE=-0.440 eV
Deletion accepted: atom 150, ΔE=-0.486 eV
Deletion accepted: atom 138, ΔE=-0.361 eV
Deletion accepted: atom 165, ΔE=-0.282 eV
Deletion accepted: atom 219, ΔE=-0.520 eV
Deletion accepted: atom 162, ΔE=-0.252 eV
Deletion accepted: atom 202, ΔE=-0.334 eV
Deletion accepted: atom 147, ΔE=-0.183 eV
Deletion accepted: atom 189, ΔE=-0.471 eV
Deletion accepted: atom 175, ΔE=-0.232 eV
Deletion accepted: atom 234, ΔE=-0.443 eV
Deletion accepted: atom 191, ΔE=-0.076 eV
Deletion accepted: atom 189, ΔE=-0.471 eV
Deletion accepted: atom 248, ΔE=-0.244 eV
Deletion accepted: atom 183, ΔE=-0.192 eV
Deletion accepted: atom 129, ΔE=-0.073 eV
Deletion accepted: atom 240, ΔE=-0.346 eV
Deletion accepted: atom 134, ΔE=-0.074 eV
Deletion accepted: atom 159, ΔE=-0.713 eV
Deletion accepted: atom 215, ΔE=-0.415 eV
Deletion accepted: atom 246, ΔE=-0.034 eV
Deletion accepted: atom 205, ΔE=-0.639 eV
Deletion accepted: atom 188, ΔE=-0.185 eV
Deletion accepted: atom 159, ΔE=-0.713 eV
Deletion accepted: atom 194, ΔE=-0.305 eV
GCMC: MD step 99, acceptance ratio = 0.399082
GCMC: Final number of atoms = 250
GCMC: Running 100 MC steps at temperature 300 K
GCMC: Current number of atoms = 250
GCMC step 0: atoms=250, acceptance_rate=0.399
Deletion accepted: atom 146, ΔE=-0.206 eV
Deletion accepted: atom 166, ΔE=-0.017 eV
Deletion accepted: atom 174, ΔE=-0.452 eV
Deletion accepted: atom 192, ΔE=-0.304 eV
Deletion accepted: atom 199, ΔE=-0.204 eV
Deletion accepted: atom 157, ΔE=-0.375 eV
Deletion accepted: atom 245, ΔE=-0.626 eV
Deletion accepted: atom 174, ΔE=-0.452 eV
Deletion accepted: atom 230, ΔE=-0.272 eV
Deletion accepted: atom 129, ΔE=-0.073 eV
Deletion accepted: atom 128, ΔE=-0.076 eV
Deletion accepted: atom 197, ΔE=-0.279 eV
Deletion accepted: atom 213, ΔE=-0.199 eV
Deletion accepted: atom 148, ΔE=-0.219 eV
Deletion accepted: atom 209, ΔE=-0.237 eV
Deletion accepted: atom 137, ΔE=-0.419 eV
Deletion accepted: atom 244, ΔE=-0.241 eV
Deletion accepted: atom 211, ΔE=-0.208 eV
Deletion accepted: atom 226, ΔE=-0.000 eV
Deletion accepted: atom 196, ΔE=-0.003 eV
Deletion accepted: atom 142, ΔE=-0.250 eV
Deletion accepted: atom 228, ΔE=-0.075 eV
Deletion accepted: atom 132, ΔE=-0.314 eV
Deletion accepted: atom 133, ΔE=-0.108 eV
Deletion accepted: atom 185, ΔE=-0.313 eV
Deletion accepted: atom 181, ΔE=-0.265 eV
Deletion accepted: atom 211, ΔE=-0.208 eV
Deletion accepted: atom 207, ΔE=-0.539 eV
Deletion accepted: atom 189, ΔE=-0.471 eV
Deletion accepted: atom 237, ΔE=-0.417 eV
Deletion accepted: atom 190, ΔE=-0.224 eV
Deletion accepted: atom 244, ΔE=-0.241 eV
Deletion accepted: atom 243, ΔE=-0.137 eV
Deletion accepted: atom 137, ΔE=-0.419 eV
Deletion accepted: atom 167, ΔE=-0.468 eV
Deletion accepted: atom 229, ΔE=-0.287 eV
Deletion accepted: atom 200, ΔE=-0.284 eV
Deletion accepted: atom 132, ΔE=-0.314 eV
Deletion accepted: atom 236, ΔE=-0.212 eV
Deletion accepted: atom 128, ΔE=-0.076 eV
Deletion accepted: atom 247, ΔE=-0.205 eV
GCMC: MD step 100, acceptance ratio = 0.399293
GCMC: Final number of atoms = 250
GCMC: Running 100 MC steps at temperature 300 K
GCMC: Current number of atoms = 250
Deletion accepted: atom 239, ΔE=-0.316 eV
GCMC step 0: atoms=250, acceptance_rate=0.399
Deletion accepted: atom 134, ΔE=-0.074 eV
Deletion accepted: atom 207, ΔE=-0.539 eV
Deletion accepted: atom 220, ΔE=-0.384 eV
Deletion accepted: atom 198, ΔE=-0.282 eV
Deletion accepted: atom 233, ΔE=-0.370 eV
Deletion accepted: atom 208, ΔE=-0.190 eV
Deletion accepted: atom 222, ΔE=-0.178 eV
Deletion accepted: atom 203, ΔE=-0.327 eV
Deletion accepted: atom 173, ΔE=-0.141 eV
Deletion accepted: atom 240, ΔE=-0.346 eV
Deletion accepted: atom 127, ΔE=-0.384 eV
Deletion accepted: atom 162, ΔE=-0.252 eV
Deletion accepted: atom 145, ΔE=-0.294 eV
Deletion accepted: atom 159, ΔE=-0.713 eV
Deletion accepted: atom 194, ΔE=-0.305 eV
Deletion accepted: atom 181, ΔE=-0.265 eV
Deletion accepted: atom 223, ΔE=-0.117 eV
Deletion accepted: atom 179, ΔE=-0.278 eV
Deletion accepted: atom 131, ΔE=1.747 eV
Deletion accepted: atom 233, ΔE=-0.370 eV
Deletion accepted: atom 125, ΔE=-0.256 eV
Deletion accepted: atom 248, ΔE=-0.283 eV
Deletion accepted: atom 201, ΔE=-0.311 eV
Deletion accepted: atom 137, ΔE=-0.419 eV
Deletion accepted: atom 231, ΔE=-0.109 eV
Deletion accepted: atom 127, ΔE=-0.384 eV
Deletion accepted: atom 133, ΔE=-0.108 eV
Deletion accepted: atom 198, ΔE=-0.282 eV
Deletion accepted: atom 183, ΔE=-0.192 eV
Deletion accepted: atom 213, ΔE=-0.199 eV
Deletion accepted: atom 183, ΔE=-0.192 eV
Deletion accepted: atom 223, ΔE=-0.117 eV
Deletion accepted: atom 129, ΔE=-0.073 eV
Deletion accepted: atom 208, ΔE=-0.190 eV
Deletion accepted: atom 164, ΔE=-0.253 eV
GCMC: MD step 101, acceptance ratio = 0.3994
GCMC: Final number of atoms = 250
    100 steps completed.

---------------------------------------------------------------
Time used for this run = 0.344296 second.
Speed of this run = 72612 atom*step/second.
---------------------------------------------------------------


---------------------------------------------------------------
Finished executing the commands in run.in.
---------------------------------------------------------------


---------------------------------------------------------------
Time used = 0.352515 s.
---------------------------------------------------------------


---------------------------------------------------------------
Finished running GPUMD.
---------------------------------------------------------------

