ITEM: TIMESTEP
10
ITEM: NUMBER OF ATOMS
243
ITEM: BOX BOUNDS xy xz yz pp pp pp
0.0000000000000000e+00 4.6459694877870305e+01 1.1614923719467578e+01
0.0000000000000000e+00 2.6823517344206294e+01 1.1614923719467578e+01
0.0000000000000000e+00 1.8967091009363241e+01 6.7058793360515736e+00
ITEM: ATOMS id type x y z
1 1 4.66874 2.8328 1.86945
156 2 4.73668 5.08208 3.79785
2 1 9.37712 2.57847 1.89037
26 1 6.92114 4.03606 5.53198
3 1 14.0461 2.51647 1.75384
27 1 11.5747 3.87096 5.82747
133 2 11.8256 3.89336 0.26811
158 2 13.7521 5.29664 4.24822
4 1 18.3175 2.51672 1.94686
28 1 15.9798 3.6279 5.66889
5 1 23.1128 2.60708 2.0347
29 1 21.0139 4.41292 5.89322
30 1 25.5968 3.46106 5.76902
131 2 25.5007 4.11322 0.199374
135 2 20.8776 4.01223 0.0126244
155 2 20.9238 1.391 3.72496
160 2 23.9007 5.35818 3.81622
6 1 7.10533 7.05647 1.93722
31 1 9.40237 8.13157 5.65758
7 1 11.9751 6.96819 2.35617
32 1 13.8651 8.12675 5.80769
138 2 13.7965 7.67969 0.0266705
162 2 11.6082 9.59554 3.7243
8 1 16.0719 6.56435 2.12115
33 1 18.4902 8.2159 5.84192
139 2 18.4029 7.85766 0.639387
163 2 16.0345 9.51561 3.47418
9 1 21.0964 6.50794 2.07076
10 1 25.7249 6.46314 1.82079
34 1 23.1917 7.93867 5.34205
140 2 23.1431 7.9281 0.0965945
164 2 21.0448 9.188 3.73762
165 2 25.7025 9.54237 4.35946
15 1 28.0083 10.7145 1.52108
35 1 27.9378 7.7752 5.74649
161 2 30.2791 9.64607 3.80468
11 1 9.19788 10.8855 1.68383
166 2 9.43854 13.4469 3.8317
12 1 13.6397 10.755 1.59501
16 1 11.4349 14.467 1.75382
36 1 11.3768 12.3897 6.04996
167 2 13.2263 13.1652 3.53156
13 1 18.5106 10.8611 2.09705
17 1 16.2271 14.8951 1.90745
37 1 16.1226 12.2329 5.43352
148 2 18.7057 15.6454 0.155206
168 2 18.8198 13.6852 3.57971
14 1 23.4123 10.8277 2.02174
18 1 21.1348 14.7203 1.80088
19 1 25.383 14.6941 1.94483
38 1 20.6962 11.8159 5.57353
39 1 25.7003 12.0501 5.87546
169 2 22.9951 13.3216 3.98836
20 1 30.1829 14.5687 1.79436
40 1 30.0877 12.1253 6.0311
141 2 29.9893 12.1773 0.0340466
170 2 27.9002 13.4133 3.58223
45 1 32.2763 15.9555 5.95801
21 1 13.7451 18.7729 1.74952
41 1 13.9241 16.3755 5.5525
151 2 14.3804 21.0931 3.79413
22 1 18.9563 18.5632 1.67008
42 1 18.5739 16.1245 5.65254
46 1 16.1968 19.9193 5.89345
152 2 18.7753 21.1437 3.6077
172 2 16.4607 17.4345 3.61352
23 1 23.3884 18.6967 1.91061
43 1 23.1208 16.1278 5.79732
47 1 20.8234 19.7773 5.657
48 1 25.6524 19.9314 5.7925
149 2 23.074 16.308 0.158654
173 2 20.7525 17.3592 3.90322
174 2 25.6375 17.3361 3.69654
24 1 27.7992 18.6004 1.90252
44 1 27.9489 16.2649 5.60888
49 1 30.0103 19.8832 5.82609
154 2 27.818 21.3548 3.97659
175 2 30.4987 17.5202 3.36639
25 1 32.686 18.5616 1.50435
50 1 34.6197 20.3174 5.93941
171 2 34.8488 17.5635 3.92027
177 2 9.31069 2.75326 7.65905
52 1 13.9812 5.08576 9.57693
202 2 11.3105 4.52825 11.27
251 2 18.8014 5.35428 6.64
203 2 16.3905 3.99729 11.2506
54 1 23.6124 5.32442 9.45647
204 2 20.6988 4.11529 11.1884
205 2 26.1378 4.28448 11.1615
51 1 9.26382 5.81939 9.57746
181 2 7.1255 6.66418 7.60812
186 2 9.44265 10.4459 7.87662
56 1 11.8784 9.64985 9.39644
182 2 11.6103 6.39923 7.66343
53 1 18.7387 5.40257 9.41415
57 1 16.1845 9.78135 9.6695
183 2 15.9738 6.50084 7.63099
208 2 18.8463 8.44111 11.378
58 1 20.7849 9.38002 9.14671
59 1 25.0146 9.71959 9.6109
184 2 21.1711 6.98792 7.58083
185 2 25.5038 6.53358 7.45111
55 1 27.9292 5.43741 9.11858
60 1 30.2988 9.3639 9.79197
210 2 27.7228 8.37703 11.2893
206 2 32.414 8.62417 11.882
61 1 14.1226 13.7074 9.72963
211 2 11.7988 12.3282 11.2954
253 2 11.539 11.5456 11.048
62 1 18.3599 13.4881 9.52606
192 2 16.2846 14.5361 7.54739
212 2 16.1101 12.1802 11.3553
63 1 23.1128 13.3148 9.30546
193 2 20.7013 14.8201 7.30095
213 2 21.2496 11.9376 11.206
214 2 25.6445 11.8032 11.6897
64 1 28.0331 13.2401 9.60954
190 2 27.9057 10.8629 7.7663
194 2 26.0362 14.7359 7.41818
195 2 30.4305 14.5199 7.84056
215 2 30.2809 12.2359 11.6096
65 1 32.9809 13.3681 9.42084
191 2 35.0145 15.1864 7.62903
66 1 16.1302 17.4146 9.19363
71 1 18.716 21.2141 9.4804
197 2 18.4884 18.6641 7.18811
217 2 18.3667 16.207 11.2743
221 2 16.463 19.9657 11.6102
67 1 20.806 17.495 9.56866
68 1 25.5346 17.4566 9.32168
198 2 23.1232 19.3417 7.6549
218 2 23.2585 16.5605 11.3154
222 2 20.944 20.3761 11.4306
223 2 25.5147 20.2426 11.7132
69 1 30.2648 17.1705 9.55589
73 1 27.7626 21.1669 9.56521
199 2 27.9104 18.6552 7.87535
219 2 27.5879 16.1555 11.336
224 2 30.2762 19.76 11.7055
70 1 34.6539 17.6014 9.547
200 2 32.3096 18.8778 7.52311
220 2 33.0082 16.1145 11.6582
225 2 34.9854 20.315 11.0767
196 2 37.0329 18.7633 7.71916
216 2 37.0123 16.492 11.5503
176 2 16.4643 22.548 7.67669
201 2 18.928 23.7666 10.914
72 1 23.2782 21.7764 9.63413
178 2 25.8978 22.3633 7.78032
74 1 32.5189 21.7887 9.70906
180 2 34.7942 22.7804 7.71916
75 1 37.4376 21.5564 9.40744
76 1 11.6535 7.00254 13.146
81 1 13.8358 10.4929 13.3125
101 1 13.8552 8.07963 17.0169
227 2 14.0538 5.48261 14.8903
77 1 16.1783 6.92569 12.7421
78 1 20.447 6.60229 13.2388
102 1 18.2815 7.97541 16.8208
127 2 16.115 6.84141 18.9316
132 2 18.6048 10.3327 18.8961
232 2 16.5112 9.51029 15.0194
79 1 25.2994 6.8282 12.9311
103 1 23.2973 8.29319 17.0619
128 2 21.0359 6.75228 18.6843
233 2 20.8579 9.32443 15.067
234 2 25.3693 9.43597 15.1368
80 1 30.1483 7.08885 13.5407
104 1 27.8453 8.41365 16.9456
130 2 29.941 6.92496 18.8836
230 2 27.2982 5.51198 15.3836
235 2 30.2896 9.52424 15.8207
84 1 28.1727 10.7226 13.4215
105 1 32.6496 8.02301 17.4662
226 2 32.6374 5.58305 15.1579
231 2 34.7336 9.41855 15.3073
236 2 14.1869 13.3664 15.0469
252 2 19.8022 12.1485 16.6456
82 1 18.8038 11.0708 13.261
86 1 16.3284 14.5382 13.3301
106 1 16.0593 11.9235 17.0166
111 1 19.0298 15.8664 17.0617
136 2 16.4668 14.7469 18.7344
237 2 18.9468 13.4173 15.533
83 1 23.0557 10.8733 13.329
87 1 20.9043 14.6053 12.8367
88 1 25.5788 14.6803 13.2944
107 1 20.9343 11.8266 17.3036
108 1 25.2667 11.8542 16.8436
238 2 23.0593 13.5985 15.2091
89 1 30.314 15.0185 13.1606
109 1 29.9227 12.5474 17.3933
113 1 27.5434 16.0625 17.4422
134 2 27.7761 11.1315 18.7783
239 2 28.0523 13.6674 15.3192
85 1 32.4194 11.0353 13.3781
90 1 34.8743 14.5763 13.5248
110 1 34.8911 11.8631 17.0974
240 2 32.5396 13.4728 15.2973
115 1 37.1712 16.0315 17.0573
91 1 18.5627 18.4698 13.3156
241 2 16.3963 17.259 15.2318
92 1 23.279 18.535 13.6472
112 1 22.9024 16.148 16.7896
116 1 20.8486 19.9492 16.7034
117 1 25.5542 19.8157 17.0107
142 2 23.067 18.825 18.4989
242 2 20.9915 17.1766 14.9625
243 2 25.3967 16.9477 15.5282
247 2 23.5898 21.3952 15.1033
93 1 27.8217 18.7337 13.5834
118 1 30.5341 20.0349 17.01
143 2 28.0316 18.648 18.9144
244 2 30.0547 17.5231 15.3759
94 1 32.3305 18.7837 13.5574
114 1 32.4604 16.1011 16.9648
119 1 34.6102 19.938 16.975
144 2 32.5106 18.5631 18.7452
245 2 34.9103 16.806 15.5625
249 2 32.3441 21.4286 14.8923
95 1 37.4233 18.7226 13.6296
120 1 39.473 20.2647 16.8179
145 2 36.8168 18.9796 18.7699
96 1 21.2638 22.7852 13.014
97 1 25.4467 23.0052 13.3672
121 1 23.1767 23.9532 16.9655
126 2 23.6051 26.6488 18.788
146 2 20.8248 22.4482 18.5223
147 2 25.457 22.5296 18.7904
98 1 29.941 22.6613 13.1794
122 1 27.6349 24.3893 17.2378
228 2 30.006 25.3557 14.8621
248 2 27.7053 21.7182 15.2816
99 1 34.535 22.9333 12.912
123 1 32.5323 24.1638 17.0939
229 2 34.3658 25.2672 15.2562
124 1 36.8717 23.9903 17.0507
150 2 39.6069 23.055 18.8387
100 1 39.846 23.1766 13.2549
250 2 37.1634 21.4957 14.9178
129 2 37.2047 26.4061 18.9109
125 1 41.7815 24.197 16.82
246 2 41.5867 21.5802 14.8814
ITEM: TIMESTEP
20
ITEM: NUMBER OF ATOMS
235
ITEM: BOX BOUNDS xy xz yz pp pp pp
0.0000000000000000e+00 4.6459694877870305e+01 1.1614923719467578e+01
0.0000000000000000e+00 2.6823517344206294e+01 1.1614923719467578e+01
0.0000000000000000e+00 1.8967091009363241e+01 6.7058793360515736e+00
ITEM: ATOMS id type x y z
1 1 4.66874 2.8328 1.86945
156 2 4.73668 5.08208 3.79785
2 1 9.37712 2.57847 1.89037
26 1 6.92114 4.03606 5.53198
3 1 14.0461 2.51647 1.75384
27 1 11.5747 3.87096 5.82747
133 2 11.8256 3.89336 0.26811
158 2 13.7521 5.29664 4.24822
4 1 18.3175 2.51672 1.94686
28 1 15.9798 3.6279 5.66889
5 1 23.1128 2.60708 2.0347
29 1 21.0139 4.41292 5.89322
30 1 25.5968 3.46106 5.76902
131 2 25.5007 4.11322 0.199374
135 2 20.8776 4.01223 0.0126244
150 2 39.6069 23.055 18.8387
160 2 23.9007 5.35818 3.81622
6 1 7.10533 7.05647 1.93722
31 1 9.40237 8.13157 5.65758
7 1 11.9751 6.96819 2.35617
32 1 13.8651 8.12675 5.80769
138 2 13.7965 7.67969 0.0266705
162 2 11.6082 9.59554 3.7243
8 1 16.0719 6.56435 2.12115
33 1 18.4902 8.2159 5.84192
124 1 36.8717 23.9903 17.0507
163 2 16.0345 9.51561 3.47418
9 1 21.0964 6.50794 2.07076
10 1 25.7249 6.46314 1.82079
34 1 23.1917 7.93867 5.34205
140 2 23.1431 7.9281 0.0965945
164 2 21.0448 9.188 3.73762
165 2 25.7025 9.54237 4.35946
15 1 28.0083 10.7145 1.52108
35 1 27.9378 7.7752 5.74649
161 2 30.2791 9.64607 3.80468
11 1 9.19788 10.8855 1.68383
166 2 9.43854 13.4469 3.8317
12 1 13.6397 10.755 1.59501
16 1 11.4349 14.467 1.75382
36 1 11.3768 12.3897 6.04996
167 2 13.2263 13.1652 3.53156
13 1 18.5106 10.8611 2.09705
17 1 16.2271 14.8951 1.90745
37 1 16.1226 12.2329 5.43352
148 2 18.7057 15.6454 0.155206
168 2 18.8198 13.6852 3.57971
14 1 23.4123 10.8277 2.02174
18 1 21.1348 14.7203 1.80088
19 1 25.383 14.6941 1.94483
38 1 20.6962 11.8159 5.57353
39 1 25.7003 12.0501 5.87546
169 2 22.9951 13.3216 3.98836
20 1 30.1829 14.5687 1.79436
40 1 30.0877 12.1253 6.0311
141 2 29.9893 12.1773 0.0340466
170 2 27.9002 13.4133 3.58223
45 1 32.2763 15.9555 5.95801
21 1 13.7451 18.7729 1.74952
41 1 13.9241 16.3755 5.5525
151 2 14.3804 21.0931 3.79413
22 1 18.9563 18.5632 1.67008
42 1 18.5739 16.1245 5.65254
46 1 16.1968 19.9193 5.89345
152 2 18.7753 21.1437 3.6077
172 2 16.4607 17.4345 3.61352
23 1 23.3884 18.6967 1.91061
43 1 23.1208 16.1278 5.79732
47 1 20.8234 19.7773 5.657
48 1 25.6524 19.9314 5.7925
149 2 23.074 16.308 0.158654
173 2 20.7525 17.3592 3.90322
174 2 25.6375 17.3361 3.69654
24 1 27.7992 18.6004 1.90252
44 1 27.9489 16.2649 5.60888
49 1 30.0103 19.8832 5.82609
154 2 27.818 21.3548 3.97659
175 2 30.4987 17.5202 3.36639
25 1 32.686 18.5616 1.50435
50 1 34.6197 20.3174 5.93941
171 2 34.8488 17.5635 3.92027
177 2 9.31069 2.75326 7.65905
52 1 13.9812 5.08576 9.57693
202 2 11.3105 4.52825 11.27
251 2 18.8014 5.35428 6.64
203 2 16.3905 3.99729 11.2506
54 1 23.6124 5.32442 9.45647
204 2 20.6988 4.11529 11.1884
205 2 26.1378 4.28448 11.1615
51 1 9.26382 5.81939 9.57746
181 2 7.1255 6.66418 7.60812
186 2 9.44265 10.4459 7.87662
56 1 11.8784 9.64985 9.39644
255 2 16.1613 17.2864 12.871
53 1 18.7387 5.40257 9.41415
57 1 16.1845 9.78135 9.6695
183 2 15.9738 6.50084 7.63099
208 2 18.3632 8.57236 11.4196
58 1 20.7849 9.38002 9.14671
59 1 25.0146 9.71959 9.6109
100 1 39.846 23.1766 13.2549
185 2 25.5038 6.53358 7.45111
55 1 27.9292 5.43741 9.11858
60 1 30.2988 9.3639 9.79197
210 2 27.7228 8.37703 11.2893
206 2 32.414 8.62417 11.882
61 1 14.1226 13.7074 9.72963
211 2 11.7988 12.3282 11.2954
253 2 11.539 11.5456 11.048
62 1 18.3599 13.4881 9.52606
192 2 16.2846 14.5361 7.54739
212 2 16.1101 12.1802 11.3553
63 1 23.1128 13.3148 9.30546
193 2 20.7013 14.8201 7.30095
129 2 37.2047 26.4061 18.9109
214 2 25.6445 11.8032 11.6897
64 1 28.0331 13.2401 9.60954
190 2 27.9057 10.8629 7.7663
194 2 26.0362 14.7359 7.41818
195 2 30.4305 14.5199 7.84056
215 2 30.2809 12.2359 11.6096
65 1 32.9809 13.3681 9.42084
191 2 35.0145 15.1864 7.62903
66 1 16.1302 17.4146 9.19363
71 1 18.716 21.2141 9.4804
197 2 18.4884 18.6641 7.18811
217 2 18.3667 16.207 11.2743
221 2 16.463 19.9657 11.6102
67 1 20.806 17.495 9.56866
68 1 25.5346 17.4566 9.32168
198 2 23.1232 19.3417 7.6549
218 2 23.2585 16.5605 11.3154
222 2 20.944 20.3761 11.4306
223 2 25.5147 20.2426 11.7132
69 1 30.2648 17.1705 9.55589
73 1 27.7626 21.1669 9.56521
199 2 27.9104 18.6552 7.87535
219 2 27.5879 16.1555 11.336
224 2 30.2762 19.76 11.7055
70 1 34.6539 17.6014 9.547
200 2 32.3096 18.8778 7.52311
220 2 33.0082 16.1145 11.6582
225 2 34.9854 20.315 11.0767
196 2 37.0329 18.7633 7.71916
216 2 37.0123 16.492 11.5503
176 2 16.4643 22.548 7.67669
201 2 18.928 23.7666 10.914
72 1 23.2782 21.7764 9.63413
178 2 25.8978 22.3633 7.78032
74 1 32.5189 21.7887 9.70906
180 2 34.7942 22.7804 7.71916
75 1 37.4376 21.5564 9.40744
76 1 11.6535 7.00254 13.146
81 1 13.8358 10.4929 13.3125
101 1 13.8552 8.07963 17.0169
227 2 14.0538 5.48261 14.8903
77 1 16.1783 6.92569 12.7421
78 1 20.447 6.60229 13.2388
102 1 18.2815 7.97541 16.8208
127 2 16.115 6.84141 18.9316
229 2 34.3658 25.2672 15.2562
232 2 16.5112 9.51029 15.0194
79 1 25.2994 6.8282 12.9311
103 1 23.2973 8.29319 17.0619
128 2 21.0359 6.75228 18.6843
246 2 41.5867 21.5802 14.8814
234 2 25.3693 9.43597 15.1368
80 1 30.1483 7.08885 13.5407
104 1 27.8453 8.41365 16.9456
130 2 29.941 6.92496 18.8836
230 2 27.2982 5.51198 15.3836
235 2 30.2896 9.52424 15.8207
84 1 28.1727 10.7226 13.4215
105 1 32.6496 8.02301 17.4662
226 2 32.6374 5.58305 15.1579
231 2 34.7336 9.41855 15.3073
236 2 14.1869 13.3664 15.0469
254 2 14.8991 12.5195 4.70895
82 1 18.8038 11.0708 13.261
86 1 16.3284 14.5382 13.3301
106 1 16.0593 11.9235 17.0166
111 1 19.0298 15.8664 17.0617
125 1 41.7815 24.197 16.82
237 2 18.9468 13.4173 15.533
83 1 23.0557 10.8733 13.329
87 1 20.9043 14.6053 12.8367
88 1 25.5788 14.6803 13.2944
107 1 20.9343 11.8266 17.3036
108 1 25.2667 11.8542 16.8436
238 2 23.2135 13.2176 14.953
89 1 30.314 15.0185 13.1606
109 1 29.9227 12.5474 17.3933
113 1 27.5434 16.0625 17.4422
134 2 27.7761 11.1315 18.7783
239 2 28.0523 13.6674 15.3192
85 1 32.4194 11.0353 13.3781
90 1 34.8743 14.5763 13.5248
110 1 34.8911 11.8631 17.0974
240 2 32.5396 13.4728 15.2973
115 1 37.1712 16.0315 17.0573
91 1 18.5627 18.4698 13.3156
250 2 37.1634 21.4957 14.9178
92 1 23.279 18.535 13.6472
112 1 22.9024 16.148 16.7896
116 1 20.8486 19.9492 16.7034
117 1 25.5542 19.8157 17.0107
142 2 23.067 18.825 18.4989
242 2 20.9915 17.1766 14.9625
243 2 25.3967 16.9477 15.5282
247 2 23.5898 21.3952 15.1033
93 1 27.8217 18.7337 13.5834
118 1 30.5341 20.0349 17.01
143 2 28.0316 18.648 18.9144
244 2 30.0547 17.5231 15.3759
94 1 32.3305 18.7837 13.5574
114 1 32.4604 16.1011 16.9648
119 1 34.6102 19.938 16.975
144 2 32.5106 18.5631 18.7452
245 2 34.9103 16.806 15.5625
249 2 32.3441 21.4286 14.8923
95 1 37.4233 18.7226 13.6296
120 1 39.473 20.2647 16.8179
145 2 36.8168 18.9796 18.7699
96 1 21.2638 22.7852 13.014
97 1 25.4467 23.0052 13.3672
121 1 23.1767 23.9532 16.9655
126 2 23.6051 26.6488 18.788
146 2 20.8248 22.4482 18.5223
147 2 25.457 22.5296 18.7904
98 1 29.941 22.6613 13.1794
122 1 27.6349 24.3893 17.2378
228 2 30.006 25.3557 14.8621
248 2 27.7053 21.7182 15.2816
99 1 34.535 22.9333 12.912
123 1 32.5323 24.1638 17.0939
ITEM: TIMESTEP
30
ITEM: NUMBER OF ATOMS
229
ITEM: BOX BOUNDS xy xz yz pp pp pp
0.0000000000000000e+00 4.6459694877870305e+01 1.1614923719467578e+01
0.0000000000000000e+00 2.6823517344206294e+01 1.1614923719467578e+01
0.0000000000000000e+00 1.8967091009363241e+01 6.7058793360515736e+00
ITEM: ATOMS id type x y z
1 1 4.66874 2.8328 1.86945
258 2 11.8525 8.31957 8.8155
2 1 9.37712 2.57847 1.89037
26 1 6.92114 4.03606 5.53198
3 1 14.0461 2.51647 1.75384
27 1 11.5747 3.87096 5.82747
133 2 11.8256 3.89336 0.26811
158 2 13.7521 5.29664 4.24822
4 1 18.3175 2.51672 1.94686
28 1 15.9798 3.6279 5.66889
5 1 23.1128 2.60708 2.0347
29 1 21.0139 4.41292 5.89322
30 1 25.5968 3.46106 5.76902
131 2 25.5007 4.11322 0.199374
257 2 15.8734 10.4407 10.6209
150 2 39.6069 23.055 18.8387
160 2 23.9007 5.35818 3.81622
6 1 7.10533 7.05647 1.93722
31 1 9.40237 8.13157 5.65758
7 1 11.9751 6.96819 2.35617
32 1 13.8651 8.12675 5.80769
138 2 13.7965 7.67969 0.0266705
162 2 11.6082 9.59554 3.7243
8 1 16.0719 6.56435 2.12115
33 1 18.4902 8.2159 5.84192
124 1 36.8717 23.9903 17.0507
163 2 16.0345 9.51561 3.47418
9 1 21.0964 6.50794 2.07076
10 1 25.7249 6.46314 1.82079
34 1 23.1917 7.93867 5.34205
140 2 23.1431 7.9281 0.0965945
164 2 21.0448 9.188 3.73762
165 2 25.7025 9.54237 4.35946
15 1 28.0083 10.7145 1.52108
35 1 27.9378 7.7752 5.74649
161 2 30.2791 9.64607 3.80468
11 1 9.19788 10.8855 1.68383
166 2 9.43854 13.4469 3.8317
12 1 13.6397 10.755 1.59501
16 1 11.4349 14.467 1.75382
36 1 11.3768 12.3897 6.04996
167 2 13.2263 13.1652 3.53156
13 1 18.5106 10.8611 2.09705
17 1 16.2271 14.8951 1.90745
37 1 16.1226 12.2329 5.43352
148 2 18.7057 15.6454 0.155206
123 1 32.5323 24.1638 17.0939
14 1 23.4123 10.8277 2.02174
18 1 21.1348 14.7203 1.80088
19 1 25.383 14.6941 1.94483
38 1 20.6962 11.8159 5.57353
39 1 25.7003 12.0501 5.87546
169 2 22.9951 13.3216 3.98836
20 1 30.1829 14.5687 1.79436
40 1 30.0877 12.1253 6.0311
141 2 29.9893 12.1773 0.0340466
170 2 27.9002 13.4133 3.58223
45 1 32.2763 15.9555 5.95801
21 1 13.7451 18.7729 1.74952
41 1 13.9241 16.3755 5.5525
151 2 14.3804 21.0931 3.79413
22 1 18.9563 18.5632 1.67008
42 1 18.5739 16.1245 5.65254
46 1 16.1968 19.9193 5.89345
152 2 18.7753 21.1437 3.6077
172 2 16.4607 17.4345 3.61352
23 1 23.3884 18.6967 1.91061
43 1 23.1208 16.1278 5.79732
47 1 20.8234 19.7773 5.657
48 1 25.6524 19.9314 5.7925
149 2 23.074 16.308 0.158654
256 2 12.8261 15.7475 0.954353
174 2 25.6375 17.3361 3.69654
24 1 27.7992 18.6004 1.90252
44 1 27.9489 16.2649 5.60888
49 1 30.0103 19.8832 5.82609
154 2 27.818 21.3548 3.97659
175 2 30.4987 17.5202 3.36639
25 1 32.686 18.5616 1.50435
50 1 34.6197 20.3174 5.93941
171 2 34.8488 17.5635 3.92027
255 2 16.7707 14.789 5.75237
52 1 13.9812 5.08576 9.57693
202 2 11.3105 4.52825 11.27
251 2 18.8014 5.35428 6.64
203 2 16.2508 4.08118 11.2304
54 1 23.6124 5.32442 9.45647
204 2 20.6988 4.11529 11.1884
205 2 26.1378 4.28448 11.1615
51 1 9.26382 5.81939 9.57746
181 2 7.1255 6.66418 7.60812
99 1 34.535 22.9333 12.912
56 1 11.8784 9.64985 9.39644
98 1 29.941 22.6613 13.1794
53 1 18.7387 5.40257 9.41415
57 1 16.1845 9.78135 9.6695
183 2 15.9738 6.50084 7.63099
122 1 27.6349 24.3893 17.2378
58 1 20.7849 9.38002 9.14671
59 1 25.0146 9.71959 9.6109
100 1 39.846 23.1766 13.2549
185 2 25.5038 6.53358 7.45111
55 1 27.9292 5.43741 9.11858
60 1 30.2988 9.3639 9.79197
210 2 27.7228 8.37703 11.2893
206 2 32.414 8.62417 11.882
61 1 14.1226 13.7074 9.72963
211 2 11.7988 12.3282 11.2954
253 2 11.539 11.5456 11.048
62 1 18.3599 13.4881 9.52606
248 2 27.7053 21.7182 15.2816
212 2 16.1101 12.1802 11.3553
63 1 23.1128 13.3148 9.30546
193 2 20.7013 14.8201 7.30095
129 2 37.2047 26.4061 18.9109
214 2 25.6445 11.8032 11.6897
64 1 28.0331 13.2401 9.60954
190 2 27.9057 10.8629 7.7663
194 2 26.0362 14.7359 7.41818
195 2 30.4305 14.5199 7.84056
215 2 30.2809 12.2359 11.6096
65 1 32.9809 13.3681 9.42084
191 2 35.0145 15.1864 7.62903
66 1 16.1302 17.4146 9.19363
71 1 18.716 21.2141 9.4804
228 2 30.006 25.3557 14.8621
217 2 18.3667 16.207 11.2743
221 2 16.463 19.9657 11.6102
67 1 20.806 17.495 9.56866
68 1 25.5346 17.4566 9.32168
198 2 23.1232 19.3417 7.6549
218 2 23.2585 16.5605 11.3154
222 2 20.944 20.3761 11.4306
223 2 25.5147 20.2426 11.7132
69 1 30.2648 17.1705 9.55589
73 1 27.7626 21.1669 9.56521
199 2 27.9104 18.6552 7.87535
219 2 27.5879 16.1555 11.336
224 2 30.2762 19.76 11.7055
70 1 34.6539 17.6014 9.547
200 2 32.3096 18.8778 7.52311
220 2 33.0082 16.1145 11.6582
225 2 34.9854 20.315 11.0767
196 2 37.0329 18.7633 7.71916
216 2 37.0123 16.492 11.5503
176 2 16.4643 22.548 7.67669
201 2 18.928 23.7666 10.914
72 1 23.2782 21.7764 9.63413
178 2 25.8978 22.3633 7.78032
74 1 32.5189 21.7887 9.70906
180 2 34.7942 22.7804 7.71916
75 1 37.4376 21.5564 9.40744
76 1 11.6535 7.00254 13.146
81 1 13.8358 10.4929 13.3125
101 1 13.8552 8.07963 17.0169
227 2 14.0538 5.48261 14.8903
77 1 16.1783 6.92569 12.7421
78 1 20.447 6.60229 13.2388
102 1 18.2815 7.97541 16.8208
127 2 16.115 6.84141 18.9316
229 2 34.3658 25.2672 15.2562
232 2 16.5112 9.51029 15.0194
79 1 25.2994 6.8282 12.9311
103 1 23.2973 8.29319 17.0619
128 2 21.0359 6.75228 18.6843
246 2 41.5867 21.5802 14.8814
234 2 25.3693 9.43597 15.1368
80 1 30.1483 7.08885 13.5407
104 1 27.8453 8.41365 16.9456
130 2 29.941 6.92496 18.8836
230 2 27.2982 5.51198 15.3836
235 2 30.2896 9.52424 15.8207
84 1 28.1727 10.7226 13.4215
105 1 32.6496 8.02301 17.4662
226 2 32.6374 5.58305 15.1579
231 2 34.7336 9.41855 15.3073
236 2 14.1869 13.3664 15.0469
254 2 14.8991 12.5195 4.70895
82 1 18.8038 11.0708 13.261
86 1 16.3284 14.5382 13.3301
106 1 16.0593 11.9235 17.0166
111 1 19.0298 15.8664 17.0617
125 1 41.7815 24.197 16.82
237 2 18.9468 13.4173 15.533
83 1 23.0557 10.8733 13.329
87 1 20.9043 14.6053 12.8367
88 1 25.5788 14.6803 13.2944
107 1 20.9343 11.8266 17.3036
108 1 25.2667 11.8542 16.8436
238 2 23.2135 13.2176 14.953
89 1 30.314 15.0185 13.1606
109 1 29.9227 12.5474 17.3933
113 1 27.5434 16.0625 17.4422
134 2 27.7761 11.1315 18.7783
239 2 28.0523 13.6674 15.3192
85 1 32.4194 11.0353 13.3781
90 1 34.8743 14.5763 13.5248
110 1 34.8911 11.8631 17.0974
240 2 32.5396 13.4728 15.2973
115 1 37.1712 16.0315 17.0573
91 1 18.5627 18.4698 13.3156
250 2 37.1634 21.4957 14.9178
92 1 23.279 18.535 13.6472
112 1 22.9024 16.148 16.7896
116 1 20.8486 19.9492 16.7034
117 1 25.5542 19.8157 17.0107
142 2 23.067 18.825 18.4989
242 2 20.9915 17.1766 14.9625
243 2 25.3967 16.9477 15.5282
247 2 23.5898 21.3952 15.1033
93 1 27.8217 18.7337 13.5834
118 1 30.5341 20.0349 17.01
143 2 28.0316 18.648 18.9144
244 2 30.0547 17.5231 15.3759
94 1 32.3305 18.7837 13.5574
114 1 32.4604 16.1011 16.9648
119 1 34.6102 19.938 16.975
144 2 32.5106 18.5631 18.7452
245 2 34.9103 16.806 15.5625
249 2 32.3441 21.4286 14.8923
95 1 37.4233 18.7226 13.6296
120 1 39.473 20.2647 16.8179
145 2 36.8168 18.9796 18.7699
96 1 21.2638 22.7852 13.014
97 1 25.4467 23.0052 13.3672
121 1 23.1767 23.9532 16.9655
126 2 23.6051 26.6488 18.788
146 2 20.8248 22.4482 18.5223
147 2 25.457 22.5296 18.7904
ITEM: TIMESTEP
40
ITEM: NUMBER OF ATOMS
218
ITEM: BOX BOUNDS xy xz yz pp pp pp
0.0000000000000000e+00 4.6459694877870305e+01 1.1614923719467578e+01
0.0000000000000000e+00 2.6823517344206294e+01 1.1614923719467578e+01
0.0000000000000000e+00 1.8967091009363241e+01 6.7058793360515736e+00
ITEM: ATOMS id type x y z
1 1 4.66874 2.8328 1.86945
120 1 39.473 20.2647 16.8179
2 1 9.37712 2.57847 1.89037
26 1 6.92114 4.03606 5.53198
3 1 14.0461 2.51647 1.75384
27 1 11.5747 3.87096 5.82747
133 2 11.8256 3.89336 0.26811
158 2 13.7521 5.29664 4.24822
4 1 18.3175 2.51672 1.94686
28 1 15.9798 3.6279 5.66889
5 1 23.1128 2.60708 2.0347
29 1 21.0139 4.41292 5.89322
30 1 25.5968 3.46106 5.76902
131 2 25.5007 4.11322 0.199374
96 1 21.2638 22.7852 13.014
150 2 39.6069 23.055 18.8387
160 2 23.9007 5.35818 3.81622
6 1 7.10533 7.05647 1.93722
31 1 9.40237 8.13157 5.65758
7 1 11.9751 6.96819 2.35617
32 1 13.8651 8.12675 5.80769
121 1 23.1767 23.9532 16.9655
162 2 11.6082 9.59554 3.7243
8 1 16.0719 6.56435 2.12115
33 1 18.4902 8.2159 5.84192
124 1 36.8717 23.9903 17.0507
163 2 16.0345 9.51561 3.47418
9 1 21.0964 6.50794 2.07076
10 1 25.7249 6.46314 1.82079
34 1 23.1917 7.93867 5.34205
140 2 23.1431 7.9281 0.0965945
164 2 21.0448 9.188 3.73762
165 2 25.7025 9.54237 4.35946
15 1 28.0083 10.7145 1.52108
35 1 27.9378 7.7752 5.74649
161 2 30.2791 9.64607 3.80468
11 1 9.19788 10.8855 1.68383
145 2 36.8168 18.9796 18.7699
12 1 13.6397 10.755 1.59501
16 1 11.4349 14.467 1.75382
36 1 11.3768 12.3897 6.04996
167 2 13.2263 13.1652 3.53156
13 1 18.5106 10.8611 2.09705
17 1 16.2271 14.8951 1.90745
37 1 16.1226 12.2329 5.43352
148 2 18.7057 15.6454 0.155206
123 1 32.5323 24.1638 17.0939
14 1 23.4123 10.8277 2.02174
18 1 21.1348 14.7203 1.80088
19 1 25.383 14.6941 1.94483
38 1 20.6962 11.8159 5.57353
39 1 25.7003 12.0501 5.87546
169 2 22.9951 13.3216 3.98836
20 1 30.1829 14.5687 1.79436
40 1 30.0877 12.1253 6.0311
141 2 29.9893 12.1773 0.0340466
170 2 27.9002 13.4133 3.58223
45 1 32.2763 15.9555 5.95801
21 1 13.7451 18.7729 1.74952
41 1 13.9241 16.3755 5.5525
151 2 14.3804 21.0931 3.79413
22 1 18.9563 18.5632 1.67008
42 1 18.5739 16.1245 5.65254
46 1 16.1968 19.9193 5.89345
152 2 18.7753 21.1437 3.6077
172 2 16.4607 17.4345 3.61352
23 1 23.3884 18.6967 1.91061
43 1 23.1208 16.1278 5.79732
47 1 20.8234 19.7773 5.657
48 1 25.6524 19.9314 5.7925
149 2 23.074 16.308 0.158654
146 2 20.8248 22.4482 18.5223
174 2 25.6375 17.3361 3.69654
24 1 27.7992 18.6004 1.90252
44 1 27.9489 16.2649 5.60888
49 1 30.0103 19.8832 5.82609
154 2 27.818 21.3548 3.97659
175 2 30.4987 17.5202 3.36639
25 1 32.686 18.5616 1.50435
50 1 34.6197 20.3174 5.93941
171 2 34.8488 17.5635 3.92027
255 2 15.9198 14.8617 6.15612
52 1 13.9812 5.08576 9.57693
202 2 11.3105 4.52825 11.27
251 2 18.8014 5.35428 6.64
203 2 16.2508 4.08118 11.2304
54 1 23.6124 5.32442 9.45647
249 2 32.3441 21.4286 14.8923
205 2 26.1378 4.28448 11.1615
51 1 9.26382 5.81939 9.57746
181 2 7.1255 6.66418 7.60812
99 1 34.535 22.9333 12.912
56 1 11.8784 9.64985 9.39644
98 1 29.941 22.6613 13.1794
53 1 18.7387 5.40257 9.41415
57 1 16.1845 9.78135 9.6695
183 2 15.9738 6.50084 7.63099
122 1 27.6349 24.3893 17.2378
58 1 20.7849 9.38002 9.14671
59 1 25.0146 9.71959 9.6109
100 1 39.846 23.1766 13.2549
185 2 25.5038 6.53358 7.45111
55 1 27.9292 5.43741 9.11858
60 1 30.2988 9.3639 9.79197
210 2 27.7228 8.37703 11.2893
206 2 32.414 8.62417 11.882
61 1 14.1226 13.7074 9.72963
211 2 11.7988 12.3282 11.2954
253 2 11.539 11.5456 11.048
62 1 18.3599 13.4881 9.52606
248 2 27.7053 21.7182 15.2816
97 1 25.4467 23.0052 13.3672
63 1 23.1128 13.3148 9.30546
193 2 20.7013 14.8201 7.30095
129 2 37.2047 26.4061 18.9109
214 2 25.6445 11.8032 11.6897
64 1 28.0331 13.2401 9.60954
190 2 27.9057 10.8629 7.7663
194 2 26.0362 14.7359 7.41818
195 2 30.4305 14.5199 7.84056
215 2 30.2809 12.2359 11.6096
65 1 32.9809 13.3681 9.42084
191 2 35.0145 15.1864 7.62903
66 1 16.1302 17.4146 9.19363
71 1 18.716 21.2141 9.4804
228 2 30.006 25.3557 14.8621
256 2 22.0042 4.73111 10.1628
245 2 34.9103 16.806 15.5625
67 1 20.806 17.495 9.56866
68 1 25.5346 17.4566 9.32168
198 2 23.1232 19.3417 7.6549
218 2 23.2585 16.5605 11.3154
222 2 20.944 20.3761 11.4306
223 2 25.5147 20.2426 11.7132
69 1 30.2648 17.1705 9.55589
73 1 27.7626 21.1669 9.56521
199 2 27.9104 18.6552 7.87535
219 2 27.5879 16.1555 11.336
224 2 30.2762 19.76 11.7055
70 1 34.6539 17.6014 9.547
200 2 32.3096 18.8778 7.52311
220 2 33.0082 16.1145 11.6582
225 2 34.9854 20.315 11.0767
196 2 37.0329 18.7633 7.71916
216 2 37.0123 16.492 11.5503
176 2 16.4643 22.548 7.67669
201 2 18.928 23.7666 10.914
72 1 23.2782 21.7764 9.63413
178 2 25.8978 22.3633 7.78032
74 1 32.5189 21.7887 9.70906
180 2 34.7942 22.7804 7.71916
75 1 37.4376 21.5564 9.40744
76 1 11.6535 7.00254 13.146
81 1 13.8358 10.4929 13.3125
101 1 13.8552 8.07963 17.0169
227 2 14.0538 5.48261 14.8903
77 1 16.1783 6.92569 12.7421
78 1 20.447 6.60229 13.2388
102 1 18.2815 7.97541 16.8208
95 1 37.4233 18.7226 13.6296
229 2 34.3658 25.2672 15.2562
232 2 16.5112 9.51029 15.0194
79 1 25.2994 6.8282 12.9311
103 1 23.2973 8.29319 17.0619
128 2 21.0359 6.75228 18.6843
246 2 41.5867 21.5802 14.8814
234 2 25.3693 9.43597 15.1368
80 1 30.1483 7.08885 13.5407
104 1 27.8453 8.41365 16.9456
130 2 29.941 6.92496 18.8836
230 2 27.2982 5.51198 15.3836
235 2 30.2896 9.52424 15.8207
84 1 28.1727 10.7226 13.4215
105 1 32.6496 8.02301 17.4662
226 2 32.6374 5.58305 15.1579
231 2 34.7336 9.41855 15.3073
236 2 14.1869 13.3664 15.0469
126 2 23.6051 26.6488 18.788
82 1 18.8038 11.0708 13.261
86 1 16.3284 14.5382 13.3301
106 1 16.0593 11.9235 17.0166
111 1 19.0298 15.8664 17.0617
125 1 41.7815 24.197 16.82
237 2 19.1796 13.3738 14.8264
83 1 23.0557 10.8733 13.329
87 1 20.9043 14.6053 12.8367
88 1 25.5788 14.6803 13.2944
107 1 20.9343 11.8266 17.3036
108 1 25.2667 11.8542 16.8436
147 2 25.457 22.5296 18.7904
89 1 30.314 15.0185 13.1606
109 1 29.9227 12.5474 17.3933
113 1 27.5434 16.0625 17.4422
134 2 27.7761 11.1315 18.7783
239 2 28.0523 13.6674 15.3192
85 1 32.4194 11.0353 13.3781
90 1 34.8743 14.5763 13.5248
110 1 34.8911 11.8631 17.0974
240 2 32.5396 13.4728 15.2973
115 1 37.1712 16.0315 17.0573
91 1 18.5627 18.4698 13.3156
250 2 37.1634 21.4957 14.9178
92 1 23.279 18.535 13.6472
112 1 22.9024 16.148 16.7896
116 1 20.8486 19.9492 16.7034
117 1 25.5542 19.8157 17.0107
142 2 23.067 18.825 18.4989
242 2 20.9915 17.1766 14.9625
243 2 25.3967 16.9477 15.5282
247 2 23.5898 21.3952 15.1033
93 1 27.8217 18.7337 13.5834
118 1 30.5341 20.0349 17.01
143 2 28.0316 18.648 18.9144
244 2 30.0547 17.5231 15.3759
94 1 32.3305 18.7837 13.5574
114 1 32.4604 16.1011 16.9648
119 1 34.6102 19.938 16.975
144 2 32.5106 18.5631 18.7452
ITEM: TIMESTEP
50
ITEM: NUMBER OF ATOMS
211
ITEM: BOX BOUNDS xy xz yz pp pp pp
0.0000000000000000e+00 4.6459694877870305e+01 1.1614923719467578e+01
0.0000000000000000e+00 2.6823517344206294e+01 1.1614923719467578e+01
0.0000000000000000e+00 1.8967091009363241e+01 6.7058793360515736e+00
ITEM: ATOMS id type x y z
1 1 4.66874 2.8328 1.86945
120 1 39.473 20.2647 16.8179
2 1 9.37712 2.57847 1.89037
26 1 6.92114 4.03606 5.53198
3 1 14.0461 2.51647 1.75384
27 1 11.5747 3.87096 5.82747
144 2 32.5106 18.5631 18.7452
158 2 13.7521 5.29664 4.24822
4 1 18.3175 2.51672 1.94686
28 1 15.9798 3.6279 5.66889
5 1 23.1128 2.60708 2.0347
29 1 21.0139 4.41292 5.89322
30 1 25.5968 3.46106 5.76902
131 2 25.5007 4.11322 0.199374
96 1 21.2638 22.7852 13.014
150 2 39.6069 23.055 18.8387
160 2 23.9007 5.35818 3.81622
6 1 7.10533 7.05647 1.93722
31 1 9.40237 8.13157 5.65758
7 1 11.9751 6.96819 2.35617
32 1 13.8651 8.12675 5.80769
121 1 23.1767 23.9532 16.9655
162 2 11.6082 9.59554 3.7243
8 1 16.0719 6.56435 2.12115
33 1 18.4902 8.2159 5.84192
124 1 36.8717 23.9903 17.0507
163 2 16.0345 9.51561 3.47418
9 1 21.0964 6.50794 2.07076
10 1 25.7249 6.46314 1.82079
34 1 23.1917 7.93867 5.34205
140 2 23.1431 7.9281 0.0965945
164 2 21.0448 9.188 3.73762
165 2 25.7025 9.54237 4.35946
15 1 28.0083 10.7145 1.52108
35 1 27.9378 7.7752 5.74649
161 2 30.2791 9.64607 3.80468
11 1 9.19788 10.8855 1.68383
145 2 36.8168 18.9796 18.7699
12 1 13.6397 10.755 1.59501
16 1 11.4349 14.467 1.75382
36 1 11.3768 12.3897 6.04996
167 2 13.2263 13.1652 3.53156
13 1 18.5106 10.8611 2.09705
17 1 16.2271 14.8951 1.90745
37 1 16.1226 12.2329 5.43352
143 2 28.0316 18.648 18.9144
123 1 32.5323 24.1638 17.0939
14 1 23.4123 10.8277 2.02174
18 1 21.1348 14.7203 1.80088