54
Time=0.00000000 pbc="T T T" Lattice="9.93000000 0.00000000 0.00000000 0.00000000 9.93000000 0.00000000 0.00000000 0.00000000 9.93000000" energy=-437.25774875 virial="-6.10330184 0.01822973 0.05020392 0.01822973 -6.11763211 0.01225861 0.05020392 0.01225861 -6.13216529" stress="-0.00623329 0.00001862 0.00005127 0.00001862 -0.00624792 0.00001252 0.00005127 0.00001252 -0.00626276" Properties=species:S:1:pos:R:3:forces:R:3:energy_atom:R:1
Ta 9.91425000 0.01350320 0.01729420 0.10635207 -0.15212259 -0.25838106 -8.08766867
Ta 1.63703000 1.63651000 1.63743000 0.30200865 0.24013070 0.17945630 -8.09187074
Ta 3.32036000 0.00380390 0.01606550 -0.11623132 -0.04353300 -0.15387672 -8.08787144
Ta 4.97605000 1.64906000 1.64305000 -0.13886014 0.13352680 0.13793787 -8.08028499
Ta 6.61090000 0.01175470 0.01865090 0.05262390 -0.28980449 -0.33029654 -8.10403078
Ta 8.26126000 1.64929000 1.63688000 0.06014466 0.11723305 0.32054314 -8.06781021
Ta 9.92100000 3.29753000 0.01409600 0.19606998 0.12236442 -0.16566060 -8.08542717
Ta 1.64366000 4.98160000 1.64477000 0.09021101 -0.31642399 0.14316784 -8.09509750
Ta 3.32674000 3.32744000 9.92239000 -0.21361319 -0.22001485 0.07999283 -8.11703855
Ta 4.97012000 4.96602000 1.64321000 0.01945669 0.04955950 0.19119220 -8.08788691
Ta 6.63597000 3.30411000 0.01870040 -0.20958276 0.11429848 -0.19880866 -8.09407152
Ta 8.29260000 4.98234000 1.63749000 -0.09581817 -0.11821492 0.22203861 -8.10950399
Ta 0.01649470 6.63572000 9.92432000 -0.17446432 -0.01675802 0.04342836 -8.06523043
Ta 1.63968000 8.28319000 1.65819000 0.18684489 0.01913192 0.00080349 -8.09834695
Ta 3.30001000 6.60797000 0.01934050 0.13458708 0.15457789 -0.12766789 -8.09725051
Ta 4.95748000 8.27655000 1.66308000 0.05213718 -0.17883009 -0.08338511 -8.09245417
Ta 6.62404000 6.62056000 9.92512000 -0.08876899 0.11492125 -0.00312244 -8.09525109
Ta 8.27881000 8.26861000 1.66361000 -0.08631270 -0.02801430 -0.16747768 -8.09407439
Ta 9.91545000 0.00173790 3.29271000 0.14663688 0.00140282 0.23345856 -8.08974474
Ta 1.65763000 1.64275000 4.97135000 -0.01252454 0.07242547 -0.14002043 -8.09993446
Ta 3.32718000 9.92406000 3.31473000 -0.25663823 0.04687872 -0.08498393 -8.10060902
Ta 4.96362000 1.63984000 4.95090000 0.13095769 0.21405879 0.05517410 -8.08214241
Ta 6.62206000 9.91480000 3.29623000 -0.08498756 0.13003687 0.08971778 -8.09359067
Ta 8.27235000 1.64489000 4.95456000 -0.00588446 0.04483420 0.07903426 -8.09653856
Ta 0.00293946 3.29394000 3.31888000 -0.01541565 0.11096235 -0.15964590 -8.11829589
Ta 1.65836000 4.96141000 4.95663000 0.05909942 -0.06939372 0.10137063 -8.09922205
Ta 3.32535000 3.29782000 3.30612000 -0.15656758 0.09709680 -0.04864499 -8.12619642
Ta 4.97022000 4.98052000 4.98367000 -0.13476133 -0.21946813 -0.16699785 -8.10255011
Ta 6.62045000 3.31884000 3.31737000 0.00641521 -0.06221428 -0.09902245 -8.11498173
Ta 8.26381000 4.95807000 4.96194000 0.17796494 0.14672733 0.01151862 -8.08699721
Ta 0.01131180 6.62214000 3.30157000 -0.14945672 -0.05759754 0.19315456 -8.08716006
Ta 1.64962000 8.26767000 4.97051000 -0.04217350 0.16151930 -0.00671356 -8.11172637
Ta 3.29586000 6.61843000 3.31853000 0.12512537 -0.06987094 -0.12096245 -8.09762114
Ta 4.94728000 8.25668000 4.96256000 0.10548027 0.16206765 0.00801537 -8.09276802
Ta 6.62531000 6.61870000 3.31659000 -0.09074300 -0.06195010 -0.15663374 -8.09568618
Ta 8.25869000 8.28323000 4.94741000 0.27692333 -0.09479834 0.26306375 -8.10792561
Ta 0.01099680 0.00971894 6.63661000 -0.17238406 -0.11716232 -0.17676399 -8.08964665
Ta 1.66175000 1.64923000 8.26153000 -0.06575473 0.13027505 0.23419353 -8.10879038
Ta 3.32032000 0.01909050 6.61327000 -0.10022598 -0.27943619 0.03445137 -8.08303960
Ta 4.96189000 1.63967000 8.26034000 0.13760230 0.12353716 0.20531798 -8.08898336
Ta 6.61129000 0.01177190 6.60163000 0.10922866 -0.17966214 0.20485761 -8.10495623
Ta 8.27306000 1.66669000 8.28355000 0.00319806 -0.14232337 -0.14443589 -8.09532550
Ta 9.92387000 3.31826000 6.60668000 0.07053322 -0.07232737 0.14195673 -8.11047904
Ta 1.63651000 4.98096000 8.28134000 0.17580502 -0.29079644 -0.04781385 -8.09518842
Ta 3.32505000 3.29961000 6.63478000 -0.16344226 0.17071392 -0.19724742 -8.10224619
Ta 4.96389000 4.95786000 8.26696000 0.09423250 0.11013013 0.11109162 -8.09790040
Ta 6.63246000 3.31559000 6.63516000 -0.10115076 -0.09479765 -0.14005639 -8.10418533
Ta 8.27588000 4.97041000 8.29174000 0.00278517 0.02964216 -0.14495821 -8.10974064
Ta 0.01556150 6.60981000 6.63015000 -0.26053868 0.13549309 -0.21410045 -8.10275403
Ta 1.66188000 8.27568000 8.28326000 0.02183094 0.17039350 0.00442910 -8.11277879
Ta 3.30823000 6.62899000 6.63363000 -0.09954109 -0.15921246 -0.07466708 -8.07762012
Ta 4.94565000 8.26138000 8.26827000 0.22043686 0.15813195 0.14009253 -8.11213436
Ta 6.61084000 6.62945000 6.60332000 0.22254971 0.00431412 0.25156742 -8.09459596
Ta 8.29193000 8.27974000 8.27685000 -0.25139996 0.04834185 -0.06868088 -8.11252309
54
Time=0.00000000 pbc="T T T" Lattice="9.93000000 0.00000000 0.00000000 0.00000000 9.93000000 0.00000000 0.00000000 0.00000000 9.93000000" energy=-437.25774875 virial="-6.10330184 0.01822973 0.05020392 0.01822973 -6.11763211 0.01225861 0.05020392 0.01225861 -6.13216529" stress="-0.00623329 0.00001862 0.00005127 0.00001862 -0.00624792 0.00001252 0.00005127 0.00001252 -0.00626276" Properties=species:S:1:pos:R:3:forces:R:3:energy_atom:R:1
Ta 9.91425000 0.01350320 0.01729420 0.10635207 -0.15212259 -0.25838106 -8.08766867
Ta 1.63703000 1.63651000 1.63743000 0.30200865 0.24013070 0.17945630 -8.09187074
Ta 3.32036000 0.00380390 0.01606550 -0.11623132 -0.04353300 -0.15387672 -8.08787144
Ta 4.97605000 1.64906000 1.64305000 -0.13886014 0.13352680 0.13793787 -8.08028499
Ta 6.61090000 0.01175470 0.01865090 0.05262390 -0.28980449 -0.33029654 -8.10403078
Ta 8.26126000 1.64929000 1.63688000 0.06014466 0.11723305 0.32054314 -8.06781021
Ta 9.92100000 3.29753000 0.01409600 0.19606998 0.12236442 -0.16566060 -8.08542717
Ta 1.64366000 4.98160000 1.64477000 0.09021101 -0.31642399 0.14316784 -8.09509750
Ta 3.32674000 3.32744000 9.92239000 -0.21361319 -0.22001485 0.07999283 -8.11703855
Ta 4.97012000 4.96602000 1.64321000 0.01945669 0.04955950 0.19119220 -8.08788691
Ta 6.63597000 3.30411000 0.01870040 -0.20958276 0.11429848 -0.19880866 -8.09407152
Ta 8.29260000 4.98234000 1.63749000 -0.09581817 -0.11821492 0.22203861 -8.10950399
Ta 0.01649470 6.63572000 9.92432000 -0.17446432 -0.01675802 0.04342836 -8.06523043
Ta 1.63968000 8.28319000 1.65819000 0.18684489 0.01913192 0.00080349 -8.09834695
Ta 3.30001000 6.60797000 0.01934050 0.13458708 0.15457789 -0.12766789 -8.09725051
Ta 4.95748000 8.27655000 1.66308000 0.05213718 -0.17883009 -0.08338511 -8.09245417
Ta 6.62404000 6.62056000 9.92512000 -0.08876899 0.11492125 -0.00312244 -8.09525109
Ta 8.27881000 8.26861000 1.66361000 -0.08631270 -0.02801430 -0.16747768 -8.09407439
Ta 9.91545000 0.00173790 3.29271000 0.14663688 0.00140282 0.23345856 -8.08974474
Ta 1.65763000 1.64275000 4.97135000 -0.01252454 0.07242547 -0.14002043 -8.09993446
Ta 3.32718000 9.92406000 3.31473000 -0.25663823 0.04687872 -0.08498393 -8.10060902
Ta 4.96362000 1.63984000 4.95090000 0.13095769 0.21405879 0.05517410 -8.08214241
Ta 6.62206000 9.91480000 3.29623000 -0.08498756 0.13003687 0.08971778 -8.09359067
Ta 8.27235000 1.64489000 4.95456000 -0.00588446 0.04483420 0.07903426 -8.09653856
Ta 0.00293946 3.29394000 3.31888000 -0.01541565 0.11096235 -0.15964590 -8.11829589
Ta 1.65836000 4.96141000 4.95663000 0.05909942 -0.06939372 0.10137063 -8.09922205
Ta 3.32535000 3.29782000 3.30612000 -0.15656758 0.09709680 -0.04864499 -8.12619642
Ta 4.97022000 4.98052000 4.98367000 -0.13476133 -0.21946813 -0.16699785 -8.10255011
Ta 6.62045000 3.31884000 3.31737000 0.00641521 -0.06221428 -0.09902245 -8.11498173
Ta 8.26381000 4.95807000 4.96194000 0.17796494 0.14672733 0.01151862 -8.08699721
Ta 0.01131180 6.62214000 3.30157000 -0.14945672 -0.05759754 0.19315456 -8.08716006
Ta 1.64962000 8.26767000 4.97051000 -0.04217350 0.16151930 -0.00671356 -8.11172637
Ta 3.29586000 6.61843000 3.31853000 0.12512537 -0.06987094 -0.12096245 -8.09762114
Ta 4.94728000 8.25668000 4.96256000 0.10548027 0.16206765 0.00801537 -8.09276802
Ta 6.62531000 6.61870000 3.31659000 -0.09074300 -0.06195010 -0.15663374 -8.09568618
Ta 8.25869000 8.28323000 4.94741000 0.27692333 -0.09479834 0.26306375 -8.10792561
Ta 0.01099680 0.00971894 6.63661000 -0.17238406 -0.11716232 -0.17676399 -8.08964665
Ta 1.66175000 1.64923000 8.26153000 -0.06575473 0.13027505 0.23419353 -8.10879038
Ta 3.32032000 0.01909050 6.61327000 -0.10022598 -0.27943619 0.03445137 -8.08303960
Ta 4.96189000 1.63967000 8.26034000 0.13760230 0.12353716 0.20531798 -8.08898336
Ta 6.61129000 0.01177190 6.60163000 0.10922866 -0.17966214 0.20485761 -8.10495623
Ta 8.27306000 1.66669000 8.28355000 0.00319806 -0.14232337 -0.14443589 -8.09532550
Ta 9.92387000 3.31826000 6.60668000 0.07053322 -0.07232737 0.14195673 -8.11047904
Ta 1.63651000 4.98096000 8.28134000 0.17580502 -0.29079644 -0.04781385 -8.09518842
Ta 3.32505000 3.29961000 6.63478000 -0.16344226 0.17071392 -0.19724742 -8.10224619
Ta 4.96389000 4.95786000 8.26696000 0.09423250 0.11013013 0.11109162 -8.09790040
Ta 6.63246000 3.31559000 6.63516000 -0.10115076 -0.09479765 -0.14005639 -8.10418533
Ta 8.27588000 4.97041000 8.29174000 0.00278517 0.02964216 -0.14495821 -8.10974064
Ta 0.01556150 6.60981000 6.63015000 -0.26053868 0.13549309 -0.21410045 -8.10275403
Ta 1.66188000 8.27568000 8.28326000 0.02183094 0.17039350 0.00442910 -8.11277879
Ta 3.30823000 6.62899000 6.63363000 -0.09954109 -0.15921246 -0.07466708 -8.07762012
Ta 4.94565000 8.26138000 8.26827000 0.22043686 0.15813195 0.14009253 -8.11213436
Ta 6.61084000 6.62945000 6.60332000 0.22254971 0.00431412 0.25156742 -8.09459596
Ta 8.29193000 8.27974000 8.27685000 -0.25139996 0.04834185 -0.06868088 -8.11252309
54
Time=0.00000000 pbc="T T T" Lattice="9.93000000 0.00000000 0.00000000 0.00000000 9.93000000 0.00000000 0.00000000 0.00000000 9.93000000" energy=-437.25774875 virial="-6.10330184 0.01822973 0.05020392 0.01822973 -6.11763211 0.01225861 0.05020392 0.01225861 -6.13216529" stress="-0.00623329 0.00001862 0.00005127 0.00001862 -0.00624792 0.00001252 0.00005127 0.00001252 -0.00626276" Properties=species:S:1:pos:R:3:forces:R:3:energy_atom:R:1
Ta 9.91425000 0.01350320 0.01729420 0.10635207 -0.15212259 -0.25838106 -8.08766867
Ta 1.63703000 1.63651000 1.63743000 0.30200865 0.24013070 0.17945630 -8.09187074
Ta 3.32036000 0.00380390 0.01606550 -0.11623132 -0.04353300 -0.15387672 -8.08787144
Ta 4.97605000 1.64906000 1.64305000 -0.13886014 0.13352680 0.13793787 -8.08028499
Ta 6.61090000 0.01175470 0.01865090 0.05262390 -0.28980449 -0.33029654 -8.10403078
Ta 8.26126000 1.64929000 1.63688000 0.06014466 0.11723305 0.32054314 -8.06781021
Ta 9.92100000 3.29753000 0.01409600 0.19606998 0.12236442 -0.16566060 -8.08542717
Ta 1.64366000 4.98160000 1.64477000 0.09021101 -0.31642399 0.14316784 -8.09509750
Ta 3.32674000 3.32744000 9.92239000 -0.21361319 -0.22001485 0.07999283 -8.11703855
Ta 4.97012000 4.96602000 1.64321000 0.01945669 0.04955950 0.19119220 -8.08788691
Ta 6.63597000 3.30411000 0.01870040 -0.20958276 0.11429848 -0.19880866 -8.09407152
Ta 8.29260000 4.98234000 1.63749000 -0.09581817 -0.11821492 0.22203861 -8.10950399
Ta 0.01649470 6.63572000 9.92432000 -0.17446432 -0.01675802 0.04342836 -8.06523043
Ta 1.63968000 8.28319000 1.65819000 0.18684489 0.01913192 0.00080349 -8.09834695
Ta 3.30001000 6.60797000 0.01934050 0.13458708 0.15457789 -0.12766789 -8.09725051
Ta 4.95748000 8.27655000 1.66308000 0.05213718 -0.17883009 -0.08338511 -8.09245417
Ta 6.62404000 6.62056000 9.92512000 -0.08876899 0.11492125 -0.00312244 -8.09525109
Ta 8.27881000 8.26861000 1.66361000 -0.08631270 -0.02801430 -0.16747768 -8.09407439
Ta 9.91545000 0.00173790 3.29271000 0.14663688 0.00140282 0.23345856 -8.08974474
Ta 1.65763000 1.64275000 4.97135000 -0.01252454 0.07242547 -0.14002043 -8.09993446
Ta 3.32718000 9.92406000 3.31473000 -0.25663823 0.04687872 -0.08498393 -8.10060902
Ta 4.96362000 1.63984000 4.95090000 0.13095769 0.21405879 0.05517410 -8.08214241
Ta 6.62206000 9.91480000 3.29623000 -0.08498756 0.13003687 0.08971778 -8.09359067
Ta 8.27235000 1.64489000 4.95456000 -0.00588446 0.04483420 0.07903426 -8.09653856
Ta 0.00293946 3.29394000 3.31888000 -0.01541565 0.11096235 -0.15964590 -8.11829589
Ta 1.65836000 4.96141000 4.95663000 0.05909942 -0.06939372 0.10137063 -8.09922205
Ta 3.32535000 3.29782000 3.30612000 -0.15656758 0.09709680 -0.04864499 -8.12619642
Ta 4.97022000 4.98052000 4.98367000 -0.13476133 -0.21946813 -0.16699785 -8.10255011
Ta 6.62045000 3.31884000 3.31737000 0.00641521 -0.06221428 -0.09902245 -8.11498173
Ta 8.26381000 4.95807000 4.96194000 0.17796494 0.14672733 0.01151862 -8.08699721
Ta 0.01131180 6.62214000 3.30157000 -0.14945672 -0.05759754 0.19315456 -8.08716006
Ta 1.64962000 8.26767000 4.97051000 -0.04217350 0.16151930 -0.00671356 -8.11172637
Ta 3.29586000 6.61843000 3.31853000 0.12512537 -0.06987094 -0.12096245 -8.09762114
Ta 4.94728000 8.25668000 4.96256000 0.10548027 0.16206765 0.00801537 -8.09276802
Ta 6.62531000 6.61870000 3.31659000 -0.09074300 -0.06195010 -0.15663374 -8.09568618
Ta 8.25869000 8.28323000 4.94741000 0.27692333 -0.09479834 0.26306375 -8.10792561
Ta 0.01099680 0.00971894 6.63661000 -0.17238406 -0.11716232 -0.17676399 -8.08964665
Ta 1.66175000 1.64923000 8.26153000 -0.06575473 0.13027505 0.23419353 -8.10879038
Ta 3.32032000 0.01909050 6.61327000 -0.10022598 -0.27943619 0.03445137 -8.08303960
Ta 4.96189000 1.63967000 8.26034000 0.13760230 0.12353716 0.20531798 -8.08898336
Ta 6.61129000 0.01177190 6.60163000 0.10922866 -0.17966214 0.20485761 -8.10495623
Ta 8.27306000 1.66669000 8.28355000 0.00319806 -0.14232337 -0.14443589 -8.09532550
Ta 9.92387000 3.31826000 6.60668000 0.07053322 -0.07232737 0.14195673 -8.11047904
Ta 1.63651000 4.98096000 8.28134000 0.17580502 -0.29079644 -0.04781385 -8.09518842
Ta 3.32505000 3.29961000 6.63478000 -0.16344226 0.17071392 -0.19724742 -8.10224619
Ta 4.96389000 4.95786000 8.26696000 0.09423250 0.11013013 0.11109162 -8.09790040
Ta 6.63246000 3.31559000 6.63516000 -0.10115076 -0.09479765 -0.14005639 -8.10418533
Ta 8.27588000 4.97041000 8.29174000 0.00278517 0.02964216 -0.14495821 -8.10974064
Ta 0.01556150 6.60981000 6.63015000 -0.26053868 0.13549309 -0.21410045 -8.10275403
Ta 1.66188000 8.27568000 8.28326000 0.02183094 0.17039350 0.00442910 -8.11277879
Ta 3.30823000 6.62899000 6.63363000 -0.09954109 -0.15921246 -0.07466708 -8.07762012
Ta 4.94565000 8.26138000 8.26827000 0.22043686 0.15813195 0.14009253 -8.11213436
Ta 6.61084000 6.62945000 6.60332000 0.22254971 0.00431412 0.25156742 -8.09459596
Ta 8.29193000 8.27974000 8.27685000 -0.25139996 0.04834185 -0.06868088 -8.11252309
