54
Time=0.00000000 pbc="T T T" Lattice="9.93000000 0.00000000 0.00000000 0.00000000 9.93000000 0.00000000 0.00000000 0.00000000 9.93000000" energy=-437.25774873 virial="-6.10330047 0.01822973 0.05020390 0.01822973 -6.11763044 0.01225880 0.05020390 0.01225880 -6.13216372" stress="-0.00623328 0.00001862 0.00005127 0.00001862 -0.00624792 0.00001252 0.00005127 0.00001252 -0.00626276" Properties=species:S:1:pos:R:3:forces:R:3:energy_atom:R:1
Ta 9.91425000 0.01350320 0.01729420 0.10635213 -0.15212255 -0.25838108 -8.08766867
Ta 1.63703000 1.63651000 1.63743000 0.30200875 0.24013064 0.17945626 -8.09187074
Ta 3.32036000 0.00380390 0.01606550 -0.11623126 -0.04353304 -0.15387668 -8.08787144
Ta 4.97605000 1.64906000 1.64305000 -0.13886021 0.13352671 0.13793785 -8.08028500
Ta 6.61090000 0.01175470 0.01865090 0.05262380 -0.28980443 -0.33029652 -8.10403078
Ta 8.26126000 1.64929000 1.63688000 0.06014461 0.11723306 0.32054300 -8.06781021
Ta 9.92100000 3.29753000 0.01409600 0.19606995 0.12236449 -0.16566061 -8.08542717
Ta 1.64366000 4.98160000 1.64477000 0.09021106 -0.31642389 0.14316779 -8.09509749
Ta 3.32674000 3.32744000 9.92239000 -0.21361317 -0.22001482 0.07999285 -8.11703855
Ta 4.97012000 4.96602000 1.64321000 0.01945664 0.04955957 0.19119222 -8.08788691
Ta 6.63597000 3.30411000 0.01870040 -0.20958272 0.11429847 -0.19880873 -8.09407152
Ta 8.29260000 4.98234000 1.63749000 -0.09581819 -0.11821488 0.22203852 -8.10950399
Ta 0.01649470 6.63572000 9.92432000 -0.17446422 -0.01675812 0.04342838 -8.06523043
Ta 1.63968000 8.28319000 1.65819000 0.18684505 0.01913190 0.00080355 -8.09834695
Ta 3.30001000 6.60797000 0.01934050 0.13458704 0.15457792 -0.12766788 -8.09725051
Ta 4.95748000 8.27655000 1.66308000 0.05213709 -0.17883006 -0.08338506 -8.09245417
Ta 6.62404000 6.62056000 9.92512000 -0.08876904 0.11492118 -0.00312239 -8.09525109
Ta 8.27881000 8.26861000 1.66361000 -0.08631277 -0.02801436 -0.16747767 -8.09407439
Ta 9.91545000 0.00173790 3.29271000 0.14663697 0.00140273 0.23345853 -8.08974474
Ta 1.65763000 1.64275000 4.97135000 -0.01252440 0.07242535 -0.14002054 -8.09993446
Ta 3.32718000 9.92406000 3.31473000 -0.25663817 0.04687864 -0.08498396 -8.10060902
Ta 4.96362000 1.63984000 4.95090000 0.13095764 0.21405874 0.05517406 -8.08214241
Ta 6.62206000 9.91480000 3.29623000 -0.08498771 0.13003686 0.08971773 -8.09359067
Ta 8.27235000 1.64489000 4.95456000 -0.00588456 0.04483416 0.07903423 -8.09653856
Ta 0.00293946 3.29394000 3.31888000 -0.01541562 0.11096237 -0.15964605 -8.11829589
Ta 1.65836000 4.96141000 4.95663000 0.05909960 -0.06939356 0.10137053 -8.09922205
Ta 3.32535000 3.29782000 3.30612000 -0.15656745 0.09709677 -0.04864504 -8.12619642
Ta 4.97022000 4.98052000 4.98367000 -0.13476138 -0.21946807 -0.16699788 -8.10255010
Ta 6.62045000 3.31884000 3.31737000 0.00641509 -0.06221424 -0.09902246 -8.11498173
Ta 8.26381000 4.95807000 4.96194000 0.17796480 0.14672738 0.01151855 -8.08699721
Ta 0.01131180 6.62214000 3.30157000 -0.14945666 -0.05759747 0.19315445 -8.08716006
Ta 1.64962000 8.26767000 4.97051000 -0.04217332 0.16151929 -0.00671368 -8.11172637
Ta 3.29586000 6.61843000 3.31853000 0.12512541 -0.06987088 -0.12096250 -8.09762114
Ta 4.94728000 8.25668000 4.96256000 0.10548013 0.16206760 0.00801524 -8.09276802
Ta 6.62531000 6.61870000 3.31659000 -0.09074312 -0.06195009 -0.15663381 -8.09568618
Ta 8.25869000 8.28323000 4.94741000 0.27692333 -0.09479838 0.26306363 -8.10792561
Ta 0.01099680 0.00971894 6.63661000 -0.17238402 -0.11716236 -0.17676394 -8.08964665
Ta 1.66175000 1.64923000 8.26153000 -0.06575465 0.13027498 0.23419367 -8.10879038
Ta 3.32032000 0.01909050 6.61327000 -0.10022590 -0.27943625 0.03445138 -8.08303960
Ta 4.96189000 1.63967000 8.26034000 0.13760233 0.12353714 0.20531805 -8.08898336
Ta 6.61129000 0.01177190 6.60163000 0.10922853 -0.17966201 0.20485765 -8.10495623
Ta 8.27306000 1.66669000 8.28355000 0.00319797 -0.14232331 -0.14443577 -8.09532550
Ta 9.92387000 3.31826000 6.60668000 0.07053315 -0.07232735 0.14195692 -8.11047903
Ta 1.63651000 4.98096000 8.28134000 0.17580510 -0.29079634 -0.04781371 -8.09518842
Ta 3.32505000 3.29961000 6.63478000 -0.16344210 0.17071393 -0.19724738 -8.10224619
Ta 4.96389000 4.95786000 8.26696000 0.09423251 0.11013014 0.11109164 -8.09790040
Ta 6.63246000 3.31559000 6.63516000 -0.10115088 -0.09479767 -0.14005627 -8.10418532
Ta 8.27588000 4.97041000 8.29174000 0.00278510 0.02964206 -0.14495809 -8.10974064
Ta 0.01556150 6.60981000 6.63015000 -0.26053857 0.13549312 -0.21410036 -8.10275402
Ta 1.66188000 8.27568000 8.28326000 0.02183111 0.17039348 0.00442917 -8.11277879
Ta 3.30823000 6.62899000 6.63363000 -0.09954106 -0.15921242 -0.07466704 -8.07762012
Ta 4.94565000 8.26138000 8.26827000 0.22043673 0.15813196 0.14009259 -8.11213436
Ta 6.61084000 6.62945000 6.60332000 0.22254956 0.00431405 0.25156744 -8.09459596
Ta 8.29193000 8.27974000 8.27685000 -0.25140000 0.04834187 -0.06868078 -8.11252310
