ITEM: TIMESTEP
3
ITEM: NUMBER OF ATOMS
54
ITEM: BOX BOUNDS xy xz yz pp pp pp
0.0000000000000000e+00 9.9299999999999997e+00 0.0000000000000000e+00
0.0000000000000000e+00 9.9299999999999997e+00 0.0000000000000000e+00
0.0000000000000000e+00 9.9299999999999997e+00 0.0000000000000000e+00
ITEM: ATOMS id element type x y z fx fy fz c_pe c_stress_tensor[1] c_stress_tensor[2] c_stress_tensor[3] c_stress_tensor[4] c_stress_tensor[5] c_stress_tensor[6]
1 Ta 1 9.92525 0.00408729 0.00525088 0.0336457 -0.044552 -0.0773555 -8.09684 169587 120340 115667 -10618.1 -44396.7 -39639.2
2 Ta 1 1.64954 1.64939 1.64969 0.0917194 0.072991 0.0536581 -8.09834 204689 210204 225216 9322.83 -11471.6 -35813.8
3 Ta 1 3.31314 0.00115179 0.00485708 -0.0353916 -0.0131694 -0.0463886 -8.09639 179674 212625 184743 3198.93 -4496.89 -20048.1
4 Ta 1 4.96835 1.65319 1.65138 -0.0411819 0.0394335 0.0407934 -8.09433 157030 140744 154352 14875.2 39936.4 -34385.1
5 Ta 1 6.61726 0.00359718 0.00567601 0.0153546 -0.0877075 -0.10014 -8.10203 166644 190248 202072 3135.37 14073.9 -20978.6
6 Ta 1 8.27086 1.65326 1.64949 0.0172258 0.0364726 0.0957909 -8.09095 75483.7 130295 94346 16160.7 -16788.8 19764.5
7 Ta 1 9.92725 3.30623 0.00426964 0.0599611 0.0361221 -0.0509363 -8.09587 169948 151090 200781 2556.34 -25604.5 6941.92
8 Ta 1 1.65157 4.97006 1.65189 0.0281301 -0.0963494 0.0438689 -8.09904 179657 212732 177353 -13361.4 31717.6 -6020.31
9 Ta 1 3.31507 3.31529 9.9277 -0.0652518 -0.0665462 0.024656 -8.10559 260199 215797 227722 -22664 -8258.09 -3106.88
10 Ta 1 4.96653 4.96529 1.65142 0.00532597 0.015524 0.0584485 -8.0964 213126 198027 216095 -5592.71 -28556.8 16921.3
11 Ta 1 6.62484 3.3082 0.005659 -0.0640297 0.0326519 -0.0608729 -8.09867 144823 151910 171994 31012 39589.1 25278.7
12 Ta 1 8.2803 4.97023 1.64969 -0.0285885 -0.0363577 0.0682294 -8.10313 183597 190207 181324 -1036.26 -9084.19 -39663.7
13 Ta 1 0.00499065 6.62472 9.92828 -0.0521645 -0.00545503 0.0127962 -8.08973 96489.6 132008 86597.8 2387.18 9204.14 19411.7
14 Ta 1 1.65036 8.27745 1.65596 0.0562845 0.00611054 0.000362772 -8.09953 152036 127141 172672 -3937.21 13942.8 -2473.12
15 Ta 1 3.30697 6.61635 0.00583284 0.0405401 0.0459969 -0.0378633 -8.09935 158364 164464 171861 -25873.3 -7316.2 45530.8
16 Ta 1 4.96273 8.27551 1.65745 0.0158851 -0.0542743 -0.0251389 -8.09774 192266 164764 184600 -3376.59 -11201.7 -11139.5
17 Ta 1 6.62123 6.62014 9.92854 -0.0268889 0.0350206 -0.00113309 -8.09853 216148 224098 227138 17125.7 3922.63 7980.82
18 Ta 1 8.27617 8.27309 1.65763 -0.0263588 -0.00853073 -0.0506128 -8.09825 145413 130075 142802 -12719 2366.7 -13547.4
19 Ta 1 9.9256 0.000521217 3.30476 0.0451715 4.96402e-05 0.0709451 -8.09722 179824 153489 161418 -14648 45069.4 -23955.5
20 Ta 1 1.65579 1.65131 4.96694 -0.00337051 0.0215973 -0.0423741 -8.10001 196093 219677 207084 37967.3 -7127.33 46875.8
21 Ta 1 3.31522 9.92821 3.31144 -0.077774 0.0146215 -0.0256376 -8.10045 201895 183120 162111 5671.21 -7346 -42199
22 Ta 1 4.96455 1.6504 4.96076 0.0403756 0.06544 0.0173495 -8.09494 158543 193161 149031 10267 -16183.8 54876.2
23 Ta 1 6.62064 9.92541 3.30585 -0.0256033 0.0388753 0.0275233 -8.09829 121789 166599 120423 35731.2 -36715.5 -10078
24 Ta 1 8.27421 1.65196 4.96185 -0.00193893 0.0131321 0.0239281 -8.09888 196465 173491 214366 -29376 32512.9 19130.7
25 Ta 1 0.00088584 3.30516 3.3127 -0.00512314 0.0334771 -0.0487437 -8.10565 264054 234141 209291 -4849.28 8983.56 366.799
26 Ta 1 1.65599 4.96394 4.96246 0.0189532 -0.0212001 0.0310103 -8.09981 232814 213771 227401 -29723.4 40415.5 13408.6
27 Ta 1 3.31464 3.30632 3.30885 -0.048072 0.029255 -0.0157646 -8.10832 275894 277154 301297 30857.8 35842.2 15404.3
28 Ta 1 4.9666 4.96971 4.97064 -0.0406874 -0.0660163 -0.0503452 -8.10106 186089 192272 201999 -20694.8 -5678.02 -22674.3
29 Ta 1 6.62013 3.31267 3.31223 0.00273681 -0.0181479 -0.0302599 -8.10469 227331 237037 222657 -4698.18 -43151.6 -14787.3
30 Ta 1 8.2716 4.96288 4.96408 0.0543343 0.0451616 0.00315315 -8.09624 182386 207128 225156 22220.4 -36250.1 13253.2
31 Ta 1 0.0034301 6.62066 3.30742 -0.0453876 -0.0178849 0.0588257 -8.09623 146066 184333 180374 8889.41 -18696.9 -11639.4
32 Ta 1 1.6534 8.27276 4.96665 -0.0131644 0.0496613 -0.00227367 -8.10355 219764 206347 216136 -2705.77 23696.4 -14934.2
33 Ta 1 3.30573 6.61955 3.31259 0.0381756 -0.0216896 -0.036681 -8.09937 176556 199355 174584 -40599.9 -3341.06 -6731.9
34 Ta 1 4.95966 8.26946 4.96427 0.0321864 0.0489924 0.00221408 -8.09791 146586 123710 145163 25731.7 -35292.9 18973.6
35 Ta 1 6.62161 6.61962 3.31201 -0.0275045 -0.0187942 -0.0476392 -8.09868 202560 160405 164505 -16995.5 -5335.62 4689.33
36 Ta 1 8.27004 8.27749 4.95966 0.0855995 -0.0291123 0.0808827 -8.10307 233272 220999 213397 -14626.7 19769.6 11880.8
37 Ta 1 0.0033413 0.00294463 6.62503 -0.0524862 -0.0361172 -0.0540989 -8.09721 215414 223508 230561 -27455.6 14074.6 20542.3
38 Ta 1 1.65704 1.65324 8.2709 -0.0203554 0.0394009 0.0708 -8.10301 204370 240440 188597 -35061.7 9554.32 -26000.3
39 Ta 1 3.31312 0.00579501 6.61797 -0.0306701 -0.0839004 0.0108123 -8.09522 135046 128182 160630 14479.4 -17470.3 -6128.34
40 Ta 1 4.96403 1.65037 8.27055 0.0416326 0.0382092 0.0616524 -8.09693 165104 180456 163228 28010.5 -16124 12830.2
41 Ta 1 6.61736 0.00357568 6.61444 0.0330532 -0.0548633 0.0634726 -8.10193 215694 219721 247897 37622.8 36276.6 -4409.92
42 Ta 1 8.27442 1.65854 8.2776 0.00059355 -0.0432235 -0.0437677 -8.09864 199016 192518 162642 36456 -16325.2 -817.365
43 Ta 1 9.92814 3.3125 6.61597 0.0214242 -0.0216366 0.0432182 -8.1032 226362 201177 224699 2547.04 -793.089 11788.3
44 Ta 1 1.64941 4.96986 8.27691 0.0520759 -0.0878004 -0.0156794 -8.099 184972 194098 185939 38666.5 -41439.4 10857.5
45 Ta 1 3.31456 3.30684 6.62448 -0.0501401 0.0523802 -0.0592306 -8.1011 229221 187695 212041 -43193.7 -27520.8 30193.9
46 Ta 1 4.96464 4.96283 8.27256 0.0285198 0.0324995 0.0343152 -8.09958 208823 190872 158625 -39877.8 21365.2 -9354.29
47 Ta 1 6.62376 3.3117 6.62458 -0.0312415 -0.0298373 -0.0432333 -8.10141 186837 197500 215183 22865.4 19194.3 31187.8
48 Ta 1 8.27526 4.96662 8.28006 0.000264754 0.00980753 -0.0439197 -8.10302 192696 198248 189998 -18302.7 26827.4 -30088.6
49 Ta 1 0.00473272 6.61691 6.6231 -0.0800641 0.0412703 -0.0656798 -8.10136 220022 212166 203289 5723.19 24609 15908.9
50 Ta 1 1.65706 8.27516 8.27748 0.00677235 0.0523797 0.00195001 -8.10403 175459 180459 204928 -4088.17 -3195.05 15174.5
51 Ta 1 3.30949 6.62274 6.62411 -0.029879 -0.0477656 -0.0220592 -8.09337 116655 179258 152194 -2078.43 4693.78 -13552.6
52 Ta 1 4.95914 8.27088 8.27295 0.0676272 0.0478985 0.0421656 -8.10414 250982 221501 232966 15035.8 -19497.1 -27790.4
53 Ta 1 6.6172 6.62283 6.61493 0.0675677 0.000732484 0.0760933 -8.09867 207191 204564 180338 -11593 -8784.69 -19541.4
54 Ta 1 8.28014 8.27641 8.27557 -0.0778184 0.0157672 -0.0210869 -8.10413 274257 257900 277900 -21557.1 8487.26 20422.7
