ITEM: TIMESTEP
5
ITEM: NUMBER OF ATOMS
54
ITEM: BOX BOUNDS xy xz yz pp pp pp
0.0000000000000000e+00 9.9299999999999997e+00 0.0000000000000000e+00
0.0000000000000000e+00 9.9299999999999997e+00 0.0000000000000000e+00
0.0000000000000000e+00 9.9299999999999997e+00 0.0000000000000000e+00
ITEM: ATOMS id element type x y z fx fy fz c_pe c_stress_tensor[1] c_stress_tensor[2] c_stress_tensor[3] c_stress_tensor[4] c_stress_tensor[5] c_stress_tensor[6]
1 Ta 1 9.92209 0.0068016 0.00873314 0.0553041 -0.0748894 -0.129204 -8.09457 154453 72719.4 65132.9 -17752.5 -73917.3 -66606.1
2 Ta 1 1.64591 1.64568 1.64616 0.152526 0.121351 0.089614 -8.09696 212237 221123 246637 14731.1 -19633.7 -59457.7
3 Ta 1 3.31522 0.00191653 0.00808415 -0.058817 -0.0219373 -0.0772981 -8.09407 171974 227334 181097 5286.83 -7909.99 -33342.6
4 Ta 1 4.97057 1.65199 1.64898 -0.0689624 0.0661399 0.0683638 -8.09053 133354 107272 130107 25066.3 66819.1 -57741.7
5 Ta 1 6.61544 0.00597453 0.00943629 0.0257972 -0.14603 -0.16665 -8.10309 149130 188545 207652 5150.54 23456.6 -36258.7
6 Ta 1 8.26811 1.6521 1.64583 0.0291154 0.0602784 0.160098 -8.08471 -2733.35 88922 29947.6 27274.3 -28210.1 32979
7 Ta 1 9.92543 3.30373 0.00710401 0.0995851 0.060557 -0.0843962 -8.0931 155729 124133 207519 4580.26 -42586.8 11477.1
8 Ta 1 1.6493 4.97341 1.64984 0.0464199 -0.160146 0.0727651 -8.09826 171178 226462 167453 -22115 52915.6 -9330.83
9 Ta 1 3.31844 3.31879 9.92617 -0.108357 -0.110804 0.0408306 -8.10921 305911 232153 251124 -38202.4 -13332.1 -4899.04
10 Ta 1 4.96756 4.96549 1.64904 0.00915472 0.0256135 0.0970286 -8.09409 227787 202800 232743 -9181.92 -47622.1 27879.7
11 Ta 1 6.62806 3.30702 0.00941724 -0.10631 0.0552771 -0.100966 -8.09767 113313 124855 159101 51871.8 65098.2 42382.5
12 Ta 1 8.28383 4.97371 1.64617 -0.0477439 -0.0601907 0.113111 -8.10519 178111 189093 174895 -1780.48 -15171.1 -65674
13 Ta 1 0.00830539 6.62787 9.92714 -0.0871623 -0.00885248 0.0214762 -8.08289 33811.6 92446.1 17229.4 4188.85 15463.5 32200.4
14 Ta 1 1.64728 8.27909 1.6566 0.0938274 0.0100742 0.000533611 -8.09931 126566 84632.1 160773 -6399.08 23296.9 -4144.42
15 Ta 1 3.30496 6.61393 0.00971244 0.067605 0.0769646 -0.0633509 -8.09893 136074 146882 159485 -43051 -11800.6 75786.5
16 Ta 1 4.96122 8.27583 1.65907 0.0263871 -0.0903279 -0.0419037 -8.09634 193261 147511 180373 -5476.28 -18585.9 -18625.4
17 Ta 1 6.62205 6.62024 9.92756 -0.0447727 0.0582328 -0.00181831 -8.09768 232984 246283 251414 28670.4 6614.8 13004.1
18 Ta 1 8.27694 8.27182 1.65936 -0.0437825 -0.014237 -0.0843326 -8.09718 115370 89792.8 111057 -21175.5 3948.76 -22799.3
19 Ta 1 9.92267 0.000868706 3.30128 0.0748166 0.000285736 0.117982 -8.09532 171899 128253 141046 -24278.5 75014.4 -39887.3
20 Ta 1 1.65632 1.64885 4.96822 -0.00581508 0.0360683 -0.0705576 -8.10011 199770 238903 217739 63141.9 -11996.5 78010.1
21 Ta 1 3.31868 9.92702 3.31239 -0.129432 0.0241241 -0.0427196 -8.10073 208944 177169 142702 9542.15 -12284 -70169.8
22 Ta 1 4.96427 1.64735 4.95793 0.066884 0.108605 0.028508 -8.09152 136451 193932 120427 16721.1 -27673 91011.4
23 Ta 1 6.62106 9.92235 3.30308 -0.0426814 0.0649738 0.0456331 -8.09715 75688.5 150119 73427.3 59475 -61160.5 -16281.5
24 Ta 1 8.27368 1.64993 4.95976 -0.00315582 0.022028 0.0398017 -8.09827 200197 162157 229993 -48990.5 54433.7 31795.4
25 Ta 1 0.00147519 3.30193 3.31449 -0.00829863 0.0557452 -0.0809654 -8.10945 312339 262896 221819 -8217.08 14820.1 593.282
26 Ta 1 1.65666 4.96323 4.96078 0.0310828 -0.0352151 0.0514654 -8.09976 260736 229024 251829 -49525.1 67045.3 22712.7
27 Ta 1 3.31773 3.30388 3.30808 -0.079669 0.0487471 -0.0257672 -8.11377 331648 333862 373831 51309.2 58826.8 25619.6
28 Ta 1 4.96766 4.97283 4.97439 -0.0678165 -0.110084 -0.0838837 -8.10173 182636 192441 209016 -34779.7 -9771.73 -37851
29 Ta 1 6.62022 3.31444 3.31372 0.00416452 -0.0305541 -0.0502296 -8.10784 251244 267408 243860 -8255.43 -71626.1 -24553.2
30 Ta 1 8.26935 4.96148 4.96347 0.0902279 0.0748502 0.0053939 -8.09377 176752 217669 247548 36642.4 -60577 22001
31 Ta 1 0.00570608 6.62109 3.30572 -0.075512 -0.0295717 0.0977687 -8.09377 116410 179905 172999 14666 -30884.4 -19350.2
32 Ta 1 1.65233 8.27128 4.96776 -0.0217703 0.0823196 -0.00364236 -8.10601 239127 216861 232947 -4313.68 39276.5 -24677.7
33 Ta 1 3.30289 6.61924 3.31431 0.0634224 -0.0358673 -0.0610332 -8.09902 166794 204861 163876 -67580.2 -5448.61 -11221.5
34 Ta 1 4.9561 8.26579 4.96378 0.0534157 0.0815822 0.00377251 -8.09658 117141 79043.4 114679 42616.3 -58999.3 31983.4
35 Ta 1 6.62268 6.61937 3.31335 -0.0457662 -0.0312957 -0.0792393 -8.09792 210583 140124 147278 -28403.1 -9055.74 7803.19
36 Ta 1 8.26675 8.27915 4.95611 0.141657 -0.0482542 0.134067 -8.10489 260619 239383 226941 -24090.5 31907.1 20064.2
37 Ta 1 0.0055564 0.00489916 6.62837 -0.0872331 -0.059819 -0.0897617 -8.0953 231147 244524 256397 -46515.8 23129.7 33643.2
38 Ta 1 1.6584 1.65207 8.26819 -0.0336749 0.0656135 0.117931 -8.10494 212887 272649 187099 -58634.6 15516.4 -43527.2
39 Ta 1 3.31519 0.00963847 6.61662 -0.0508931 -0.140013 0.017801 -8.09198 97425.6 86810.8 139980 23592.8 -29268 -10431.3
40 Ta 1 4.9634 1.64729 8.2676 0.0693457 0.0631522 0.102868 -8.09487 147725 173286 144694 46184.6 -27518.6 20560.6
41 Ta 1 6.61561 0.00594647 6.61074 0.0550423 -0.0910774 0.104953 -8.10311 231350 238584 284519 62690.9 60319.1 -6732.27
42 Ta 1 8.27403 1.66089 8.27933 0.00115992 -0.0718919 -0.0728625 -8.09782 204659 193724 143679 60509.4 -27319.1 -1363.1
43 Ta 1 9.92691 3.31415 6.61329 0.0356322 -0.0361045 0.07182 -8.10541 249963 208502 247282 4159.49 -1382.56 19683.2
44 Ta 1 1.6457 4.97308 8.27819 0.0872061 -0.146299 -0.0255272 -8.09822 180665 195770 181560 64739.3 -68820.2 18212.3
45 Ta 1 3.31758 3.30475 6.62746 -0.0831538 0.0869023 -0.0988463 -8.10173 254102 184662 225294 -71588.3 -45946.9 50043.6
46 Ta 1 4.96441 4.96139 8.27094 0.0475003 0.0545032 0.0567912 -8.09931 220522 190445 137085 -66325.9 35641.1 -15387.8
47 Ta 1 6.62626 3.31283 6.62763 -0.0516816 -0.0491367 -0.071516 -8.10239 183799 202012 230964 37861.8 31388.3 51509.7
48 Ta 1 8.27544 4.96769 8.28342 0.000712567 0.0159511 -0.0730718 -8.10509 193900 203241 189398 -29919.4 44474 -49952.4
49 Ta 1 0.0078689 6.61486 6.62515 -0.132728 0.0685487 -0.108952 -8.10211 238584 225262 210373 10293.8 39877 27514.2
50 Ta 1 1.65843 8.27528 8.27913 0.011239 0.0868635 0.00299103 -8.10673 164854 173468 214121 -6886.66 -4629.81 25220.6
51 Ta 1 3.30915 6.62455 6.62684 -0.0498669 -0.0797273 -0.0369533 -8.089 67327.5 171401 126444 -3927.9 7498.6 -23172.4
52 Ta 1 4.95525 8.26814 8.27159 0.112128 0.0797001 0.0703312 -8.10677 289218 241412 260539 23771 -32879.2 -46636.6
53 Ta 1 6.61534 6.62472 6.61157 0.112419 0.00154086 0.126708 -8.09774 217404 213088 173166 -19564.3 -15179.5 -32678.6
54 Ta 1 8.28355 8.27735 8.27595 -0.128722 0.025733 -0.0349584 -8.10682 329057 301777 335251 -35434.9 14095.8 33872.6
