ITEM: TIMESTEP
9
ITEM: NUMBER OF ATOMS
54
ITEM: BOX BOUNDS xy xz yz pp pp pp
0.0000000000000000e+00 9.9299999999999997e+00 0.0000000000000000e+00
0.0000000000000000e+00 9.9299999999999997e+00 0.0000000000000000e+00
0.0000000000000000e+00 9.9299999999999997e+00 0.0000000000000000e+00
ITEM: ATOMS id element type x y z fx fy fz c_pe c_stress_tensor[1] c_stress_tensor[2] c_stress_tensor[3] c_stress_tensor[4] c_stress_tensor[5] c_stress_tensor[6]
1 Ta 1 9.91581 0.0121758 0.015604 0.0965327 -0.136583 -0.232688 -8.08918 121022 -24513.1 -37301.6 -32098.7 -132512 -121374
2 Ta 1 1.63878 1.63832 1.63916 0.272456 0.216683 0.161537 -8.09307 222089 236903 284522 23706.4 -37056.4 -105833
3 Ta 1 3.31934 0.00343015 0.0144823 -0.104902 -0.0392694 -0.138691 -8.08916 154835 255732 173625 9224.63 -15630.7 -59737.5
4 Ta 1 4.97497 1.64963 1.64423 -0.124882 0.120042 0.123973 -8.08241 82397.6 39522.6 80899.9 46007.8 120825 -105192
5 Ta 1 6.61181 0.0106235 0.0168362 0.0471461 -0.261398 -0.297997 -8.10403 109906 180885 213167 9181.26 42058.2 -69630
6 Ta 1 8.26262 1.64984 1.63865 0.0538175 0.106223 0.288624 -8.07133 -162248 3412.17 -99171.3 50246.7 -51432.9 59398
7 Ta 1 9.92187 3.29876 0.0127118 0.177182 0.10994 -0.149714 -8.08704 125667 68458.6 220010 9344.23 -76114.9 20182.9
8 Ta 1 1.64478 4.97999 1.64577 0.0817046 -0.285668 0.129346 -8.09586 150728 250590 144489 -39325.2 95172.9 -14310.1
9 Ta 1 3.3251 3.32573 9.92314 -0.192908 -0.198409 0.0723715 -8.11561 394242 262868 293673 -70062.1 -22425.9 -7737.29
10 Ta 1 4.96961 4.96591 1.64436 0.0172887 0.0449117 0.172658 -8.08917 255324 210872 264173 -15918 -85642.6 48859.3
11 Ta 1 6.63441 3.30468 0.0168608 -0.189293 0.102275 -0.179558 -8.09491 47718.5 67540.6 131531 93864.6 113716 77101.8
12 Ta 1 8.29085 4.98062 1.6392 -0.0861758 -0.106776 0.200732 -8.10873 164631 184164 160864 -3373.3 -27317.6 -116459
13 Ta 1 0.0148717 6.63415 9.92488 -0.157101 -0.0152265 0.0390606 -8.06882 -91214.4 11950.8 -121267 8199.78 28310 57179.2
14 Ta 1 1.64119 8.28237 1.65787 0.168387 0.0174649 0.000734998 -8.09859 75744.4 -1019.5 136457 -10968.5 41968.1 -7661.11
15 Ta 1 3.30099 6.60915 0.0174257 0.121331 0.139093 -0.114757 -8.09765 89189 110917 134471 -77052.6 -19896.8 135656
16 Ta 1 4.95822 8.27642 1.66229 0.047055 -0.161378 -0.0751894 -8.09327 194062 112268 170501 -9356.62 -33132.9 -33729.2
17 Ta 1 6.62365 6.62049 9.92561 -0.0801077 0.103808 -0.00293146 -8.09577 265069 289016 298470 51913.7 12104.5 22132.1
18 Ta 1 8.27845 8.26926 1.66278 -0.0779695 -0.0253859 -0.151095 -8.09474 55086.9 9107.04 47505.9 -37898.2 7185.63 -41775.3
19 Ta 1 9.91688 0.00156396 3.29441 0.132613 0.00115803 0.210674 -8.09095 153617 76130.1 97659 -42920.2 134348 -71480.3
20 Ta 1 1.65737 1.64396 4.97073 -0.0111324 0.0651431 -0.126256 -8.10001 206483 275931 237463 112918 -21994.6 139591
21 Ta 1 3.3255 9.92465 3.31427 -0.231491 0.042429 -0.0766083 -8.10072 220992 162268 102290 17506.8 -22323.3 -125414
22 Ta 1 4.96374 1.64133 4.9523 0.118438 0.193274 0.0499509 -8.0841 90263.2 192703 60942.1 28684.6 -52167.7 161837
23 Ta 1 6.62187 9.9163 3.29759 -0.0766079 0.117121 0.0811043 -8.09438 -17169.9 115528 -21122.2 106442 -109606 -27463.7
24 Ta 1 8.27261 1.64589 4.95559 -0.0053678 0.0402034 0.0712193 -8.09691 206401 139093 259741 -87974.3 98696.2 56753.9
25 Ta 1 0.00264796 3.29553 3.31802 -0.0140967 0.0999626 -0.144209 -8.11661 405918 318551 246061 -15291 26042.8 1091.96
26 Ta 1 1.65801 4.96178 4.95745 0.0538193 -0.0627043 0.0915897 -8.09938 314872 258202 299347 -88881.7 119233 42185.5
27 Ta 1 3.32384 3.29902 3.30652 -0.141439 0.0875376 -0.044352 -8.12385 438890 443265 514118 91857.1 102416 45683
28 Ta 1 4.96972 4.979 4.98183 -0.12157 -0.19773 -0.150521 -8.10248 174165 189976 221055 -63369.3 -18419.9 -67947.4
29 Ta 1 6.6204 3.31797 3.31664 0.00614133 -0.0558643 -0.0894006 -8.11364 296578 325508 284773 -16288.5 -127498 -43758.9
30 Ta 1 8.2649 4.95874 4.96224 0.160669 0.132698 0.0102178 -8.08842 164504 236771 289790 64274.6 -109445 39194.2
31 Ta 1 0.0102034 6.62194 3.30238 -0.134896 -0.0521709 0.17437 -8.08853 56824.8 169831 156265 25687.5 -54475.3 -34702.3
32 Ta 1 1.65017 8.26838 4.96996 -0.0382685 0.146004 -0.00612035 -8.11064 276567 237050 265174 -7180.04 69716.4 -43544.7
33 Ta 1 3.29725 6.6186 3.31769 0.113022 -0.0632679 -0.109113 -8.09796 145707 214280 141762 -121174 -9345.8 -20045.3
34 Ta 1 4.94903 8.25849 4.96281 0.095216 0.14614 0.00708604 -8.09358 57825.3 -10469.9 53009.3 75617.3 -106573 58591.1
35 Ta 1 6.62479 6.61884 3.31595 -0.0818275 -0.0559144 -0.141374 -8.09617 225848 98649.2 112715 -51187.8 -16912.6 13997.2
36 Ta 1 8.26028 8.28242 4.94913 0.250477 -0.0856823 0.237833 -8.10749 311577 270657 249151 -42186.1 53733 36997.5
37 Ta 1 0.00992352 0.00876505 6.63498 -0.155599 -0.105951 -0.159659 -8.09087 259611 283350 304955 -86145.6 40430.8 58241.1
38 Ta 1 1.66108 1.64979 8.26284 -0.0594839 0.117466 0.2112 -8.10813 227608 333421 183062 -106017 26395.6 -78864.1
39 Ta 1 3.31931 0.017224 6.61394 -0.0905487 -0.25174 0.0312382 -8.08492 20599.8 4606.19 96690.7 40461.4 -53161.6 -19505.1
40 Ta 1 4.96218 1.64119 8.26177 0.124147 0.111648 0.184989 -8.09023 111610 157434 106566 81196 -51614.7 34060.4
41 Ta 1 6.61214 0.0106222 6.60343 0.0985291 -0.162219 0.185383 -8.10471 259092 273917 352748 112608 107751 -9849.05
42 Ta 1 8.27326 1.66555 8.28272 0.00270715 -0.128446 -0.130344 -8.09587 215162 195184 104590 107886 -49510.9 -2345.35
43 Ta 1 9.92447 3.31744 6.60799 0.0636653 -0.0650799 0.128144 -8.10952 295631 223073 291191 7069.7 -2728.98 35507.2
44 Ta 1 1.63833 4.97941 8.28071 0.15803 -0.262222 -0.0436549 -8.09592 170159 196886 169180 117144 -122635 33267.9
45 Ta 1 3.32357 3.30062 6.63334 -0.147751 0.154322 -0.177763 -8.10226 300860 175418 248542 -127113 -82682.7 88999.1
46 Ta 1 4.96398 4.95855 8.26774 0.0850319 0.0990161 0.100507 -8.09826 242066 187552 93063.2 -118578 64004.1 -26917.3
47 Ta 1 6.63123 3.31504 6.63366 -0.0914343 -0.0859848 -0.126598 -8.10389 175861 210143 260215 67210.5 54205.4 90838.7
48 Ta 1 8.27579 4.96986 8.29009 0.0022663 0.0271047 -0.130735 -8.10887 195113 212299 187108 -51635.8 79046.6 -88946.7
49 Ta 1 0.0140454 6.6108 6.62917 -0.235499 0.122303 -0.193508 -8.10275 272292 247694 220588 21097.2 67560.5 53169.1
50 Ta 1 1.66119 8.27558 8.28244 0.019806 0.154106 0.00426446 -8.11165 141809 158406 230772 -12614.8 -5692.28 45100.2
51 Ta 1 3.30842 6.62812 6.63228 -0.089673 -0.143449 -0.067068 -8.07994 -31274.5 154384 74353.3 -8732.49 12328.4 -43758.2
52 Ta 1 4.94756 8.26272 8.26892 0.199158 0.142608 0.126283 -8.1112 359498 278473 312914 38167.6 -60517.4 -84861.7
53 Ta 1 6.61172 6.6285 6.60495 0.200868 0.00370952 0.22688 -8.09531 234990 227493 157436 -36060.5 -29141.9 -59015.3
54 Ta 1 8.29028 8.27925 8.27667 -0.227482 0.0441278 -0.062064 -8.1115 434631 385572 446074 -61993.1 25016.4 60144.5
