ITEM: TIMESTEP
6
ITEM: NUMBER OF ATOMS
54
ITEM: BOX BOUNDS xy xz yz pp pp pp
0.0000000000000000e+00 9.9299999999999997e+00 0.0000000000000000e+00
0.0000000000000000e+00 9.9299999999999997e+00 0.0000000000000000e+00
0.0000000000000000e+00 9.9299999999999997e+00 0.0000000000000000e+00
ITEM: ATOMS id element type x y z fx fy fz c_pe c_stress_tensor[1] c_stress_tensor[2] c_stress_tensor[3] c_stress_tensor[4] c_stress_tensor[5] c_stress_tensor[6]
1 Ta 1 9.92051 0.00815317 0.0104646 0.0658809 -0.0902079 -0.155138 -8.09333 146476 48631.3 39660.3 -21331.8 -88632.7 -80214
2 Ta 1 1.64412 1.64382 1.6444 0.182755 0.145385 0.107612 -8.09613 215354 225826 256734 17199.7 -23858.4 -71180.1
3 Ta 1 3.31626 0.00229727 0.00969191 -0.0704489 -0.026303 -0.0927158 -8.09288 167904 234573 179252 6306.32 -9733.22 -39966.4
4 Ta 1 4.97168 1.65139 1.64778 -0.0829159 0.0795766 0.0822264 -8.08856 121051 90412.7 117884 30236.5 80306.8 -69525.4
5 Ta 1 6.61453 0.0071523 0.011304 0.031078 -0.17507 -0.199741 -8.10347 139834 187157 209730 6150.6 28134.6 -44264.6
6 Ta 1 8.26674 1.65153 1.64402 0.0351782 0.0719909 0.19229 -8.08148 -42281 67853.8 -2334.67 32927.4 -33975.6 39589
7 Ta 1 9.92453 3.30248 0.00851489 0.119224 0.0728534 -0.100942 -8.09165 148405 110412 210768 5684.19 -51032.5 13704.8
8 Ta 1 1.64816 4.97507 1.64881 0.05541 -0.191828 0.087077 -8.09776 166494 232912 162098 -26451.3 63508.6 -10777.9
9 Ta 1 3.32012 3.32054 9.9254 -0.129731 -0.132847 0.0488239 -8.11091 328407 240087 262301 -46080.4 -15737.6 -5704.74
10 Ta 1 4.96807 4.9656 1.64786 0.0111371 0.0305585 0.116152 -8.09289 234899 205012 240843 -10925.7 -57148.4 33248.2
11 Ta 1 6.62965 3.30643 0.0112888 -0.127278 0.0668223 -0.12083 -8.09708 97210.6 110900 152424 62343.5 77563.4 51002.7
12 Ta 1 8.28559 4.97544 1.64441 -0.0573414 -0.0719762 0.135312 -8.10615 175044 188192 171526 -2166.39 -18215.4 -78532.3
13 Ta 1 0.00995626 6.62944 9.92657 -0.104679 -0.0104918 0.0258501 -8.07942 2473.24 72467.6 -17471.3 5145.2 18632.9 38529.5
14 Ta 1 1.64575 8.27991 1.65692 0.112557 0.0120002 0.000600047 -8.09916 113832 63271.2 154753 -7584.12 27977 -4996.89
15 Ta 1 3.30396 6.61273 0.0116475 0.0811079 0.0924953 -0.0761557 -8.09867 124623 137976 153254 -51603.1 -13930.4 90851.2
16 Ta 1 4.96047 8.27599 1.65988 0.0316012 -0.108254 -0.0502663 -8.09561 193615 138788 178085 -6484.1 -22251.2 -22385.3
17 Ta 1 6.62246 6.6203 9.92707 -0.0536744 0.0697544 -0.00213238 -8.09723 241217 257191 263386 34468.6 7977.46 15409.2
18 Ta 1 8.27732 8.27118 1.66023 -0.0524243 -0.0170703 -0.101134 -8.0966 100307 69615.4 95159.1 -25385.6 4746.22 -27487
19 Ta 1 9.92122 0.00104247 3.29955 0.0894672 0.000457816 0.141359 -8.0943 167626 115414 130514 -29028.5 89930.1 -47826.8
20 Ta 1 1.65658 1.64763 4.96886 -0.007093 0.0433225 -0.084587 -8.10012 201523 248348 222867 75667.6 -14464.7 93508.3
21 Ta 1 3.3204 9.92642 3.31287 -0.155137 0.0287922 -0.0512366 -8.1008 212216 173813 132789 11505.5 -14770.8 -84080.9
22 Ta 1 4.96413 1.64583 4.95652 0.0799751 0.130003 0.0339731 -8.08973 125132 193959 105813 19829.9 -33614.7 108913
23 Ta 1 6.62126 9.92083 3.3017 -0.0512024 0.0780375 0.0546015 -8.09651 52527.5 141662 49828.4 71296 -73342.9 -19229
24 Ta 1 8.27341 1.64892 4.95871 -0.00373815 0.0265221 0.0477031 -8.09795 201907 156431 237626 -58780.4 65454 38087.9
25 Ta 1 0.00176924 3.30033 3.31538 -0.009816 0.0668476 -0.0969484 -8.1113 336130 277058 227990 -9942.89 17685.4 708.787
26 Ta 1 1.65699 4.96287 4.95994 0.0369694 -0.0421655 0.0616051 -8.09971 274500 236488 263887 -59403.9 80239.1 27473.8
27 Ta 1 3.31926 3.30266 3.30769 -0.095303 0.058476 -0.0305987 -8.11639 359025 361749 409540 61493.3 70028.7 30691.2
28 Ta 1 4.96818 4.97438 4.97626 -0.0813398 -0.132083 -0.100614 -8.10199 180700 192164 212266 -41886.4 -11888.1 -45424.1
29 Ta 1 6.62026 3.31533 3.31445 0.00476488 -0.0368298 -0.0601299 -8.10935 262901 282281 254287 -10153.5 -85743.9 -29399.8
30 Ta 1 8.26823 4.96079 4.96316 0.108029 0.0895245 0.00655688 -8.09248 173804 222693 258434 43712.7 -72774.4 26340.8
31 Ta 1 0.00683843 6.62131 3.30487 -0.0904885 -0.0353267 0.117105 -8.0925 101529 177530 169056 17494.9 -36884.5 -23194.7
32 Ta 1 1.65179 8.27055 4.96831 -0.0259964 0.0984672 -0.00429012 -8.1072 248661 222017 241182 -5068.55 46984.5 -29476.5
33 Ta 1 3.30147 6.61908 3.31516 0.0759506 -0.042848 -0.073147 -8.0988 161710 207415 158428 -81031 -6463.57 -13453.7
34 Ta 1 4.95433 8.26395 4.96354 0.0639525 0.0978182 0.00457631 -8.09587 102339 56654.9 99325.5 50967.5 -70883.8 38574
35 Ta 1 6.62322 6.61924 3.31401 -0.054851 -0.0375118 -0.0949346 -8.09751 214501 129859 138640 -34112.3 -10967 9355.95
36 Ta 1 8.26512 8.27997 4.95435 0.169309 -0.0577268 0.160368 -8.10567 273836 247894 233106 -28724.1 37666.1 24229.6
37 Ta 1 0.00665744 0.00587196 6.63003 -0.104488 -0.071526 -0.107433 -8.09427 238649 254638 268942 -56248.3 27556.6 39999.9
38 Ta 1 1.65907 1.6515 8.26684 -0.0402401 0.0786665 0.141406 -8.10582 216852 288313 186214 -70460.9 18369.3 -52334.1
39 Ta 1 3.31623 0.0115498 6.61595 -0.060916 -0.168047 0.0212281 -8.09028 78390.8 66161.4 129388 27981.7 -35206.8 -12643.7
40 Ta 1 4.96309 1.64576 8.26613 0.0831461 0.0754542 0.123461 -8.09377 138852 169501 135277 55109.9 -33390.2 24179.2
41 Ta 1 6.61474 0.00712507 6.60891 0.0659911 -0.109041 0.125397 -8.10361 238739 247728 302219 75205.5 72271.3 -7703.41
42 Ta 1 8.27384 1.66206 8.28018 0.00149491 -0.0861462 -0.0873427 -8.09737 207385 194207 134035 72450 -32844.2 -1627.21
43 Ta 1 9.9263 3.31498 6.61196 0.0426966 -0.0433463 0.0860263 -8.10648 261578 212153 258421 4930.73 -1697.45 23637.1
44 Ta 1 1.64385 4.97468 8.27882 0.104861 -0.175456 -0.0302592 -8.09774 178265 196320 178907 77827.3 -82407.2 21930.6
45 Ta 1 3.31909 3.30371 6.62894 -0.0994998 0.103988 -0.118641 -8.10195 266172 182737 231511 -85639.5 -55158.5 59878.4
46 Ta 1 4.9643 4.96068 8.27014 0.0569513 0.0655816 0.0678854 -8.09911 226139 189967 126181 -79482.7 42766.6 -18339.1
47 Ta 1 6.62751 3.31339 6.62914 -0.0617685 -0.0585806 -0.0854791 -8.10282 182038 204151 238567 45281.5 37293.8 61513.6
48 Ta 1 8.27553 4.96824 8.28509 0.00101876 0.0188883 -0.0875816 -8.10608 194350 205616 188954 -35542 53213.3 -59803.4
49 Ta 1 0.00942707 6.61384 6.62616 -0.158775 0.0820975 -0.13037 -8.10237 247441 231334 213413 12794.2 47157.9 33621.9
50 Ta 1 1.65912 8.27535 8.27996 0.0134368 0.103918 0.00341789 -8.10802 159314 169826 218503 -8304.27 -5126.1 30218.9
51 Ta 1 3.30897 6.62545 6.6282 -0.059854 -0.0957033 -0.0444466 -8.08677 42632.2 167301 113472 -4991.89 8803.25 -28153.8
52 Ta 1 4.95332 8.26677 8.27091 0.134155 0.0955299 0.0843882 -8.10798 307583 251035 273994 27752.1 -39682.1 -56136.6
53 Ta 1 6.61443 6.62567 6.6099 0.134721 0.00202349 0.151915 -8.09721 222154 217017 169398 -23620.7 -18529.5 -39263.7
54 Ta 1 8.28525 8.27782 8.27613 -0.153821 0.0305327 -0.0418221 -8.10808 355990 323253 363484 -42224.1 16870.3 40528.4
