ITEM: TIMESTEP
1
ITEM: NUMBER OF ATOMS
54
ITEM: BOX BOUNDS xy xz yz pp pp pp
0.0000000000000000e+00 9.9299999999999997e+00 0.0000000000000000e+00
0.0000000000000000e+00 9.9299999999999997e+00 0.0000000000000000e+00
0.0000000000000000e+00 9.9299999999999997e+00 0.0000000000000000e+00
ITEM: ATOMS id element type x y z fx fy fz c_pe c_stress_tensor[1] c_stress_tensor[2] c_stress_tensor[3] c_stress_tensor[4] c_stress_tensor[5] c_stress_tensor[6]
1 Ta 1 9.92842 0.00136348 0.00175212 0.0113596 -0.014706 -0.0256981 -8.09881 183570 167098 165507 -3526.27 -14804.7 -13088.6
2 Ta 1 1.65318 1.65313 1.65323 0.0306087 0.0243656 0.0178338 -8.09933 195401 197297 202200 3270.97 -3716.87 -11970.9
3 Ta 1 3.31105 0.000384243 0.00162013 -0.0118175 -0.00438551 -0.0154519 -8.09861 186782 197666 188335 1070.25 -1412.94 -6695.89
4 Ta 1 4.96612 1.65439 1.65379 -0.0136472 0.0130431 0.0135078 -8.09794 179418 173787 178282 4900.46 13247 -11364.5
5 Ta 1 6.61909 0.00120114 0.00189438 0.00507605 -0.029232 -0.0333901 -8.10056 182670 190514 194578 1066.74 4685.45 -6725.42
6 Ta 1 8.27362 1.65442 1.65316 0.00565956 0.0122423 0.0317991 -8.09685 152305 170500 158338 5316.55 -5544.51 6576.56
7 Ta 1 9.92908 3.30874 0.00142443 0.0200267 0.0119585 -0.0170624 -8.09846 183553 177311 193739 786.682 -8543.52 2327.23
8 Ta 1 1.65386 4.96669 1.65396 0.00946193 -0.0321656 0.0146788 -8.09954 186932 197917 186142 -4486.79 10552.4 -2147.8
9 Ta 1 3.31169 3.31176 9.92923 -0.0218031 -0.0221792 0.00826425 -8.10172 213651 198820 202972 -7460.58 -2837.66 -1088.24
10 Ta 1 4.96551 4.9651 1.6538 0.00171328 0.00521663 0.0195372 -8.09861 197914 192841 198898 -1888.14 -9507.2 5698.46
11 Ta 1 6.62162 3.3094 0.00188778 -0.021402 0.0107026 -0.0203723 -8.09941 175299 177716 184241 10294.4 13361.6 8373.19
12 Ta 1 8.27677 4.96674 1.65323 -0.00950617 -0.0121956 0.0228378 -8.10088 188177 190383 187304 -333.639 -3018.26 -13299.8
13 Ta 1 0.00166478 6.62157 9.92943 -0.0173229 -0.00187132 0.00423095 -8.0964 158993 170932 155719 750.781 3044.79 6492.13
14 Ta 1 1.65345 8.27582 1.65532 0.0187365 0.00204875 0.000136036 -8.09965 177449 169250 184358 -1346.26 4629.36 -824.29
15 Ta 1 3.30899 6.61878 0.00194518 0.0134877 0.0152525 -0.0125668 -8.09961 179768 181672 184079 -8631.68 -2519.49 15181.6
16 Ta 1 4.96424 8.27517 1.65582 0.00530792 -0.0180897 -0.00836908 -8.09906 190913 181737 188381 -1157.04 -3749.65 -3700.91
17 Ta 1 6.62041 6.62005 9.92951 -0.00895908 0.0116808 -0.000388295 -8.09931 198882 201517 202516 5677.56 1289.39 2711.77
18 Ta 1 8.27539 8.27436 1.65588 -0.00880472 -0.00282848 -0.0168525 -8.09923 175275 170170 174399 -4239.34 790.41 -4470.19
19 Ta 1 9.92853 0.00017374 3.30825 0.0151366 -2.67711e-05 0.0236722 -8.09891 186899 178079 180806 -4898.79 15031.3 -7986.11
20 Ta 1 1.65526 1.65377 4.96565 -0.00108255 0.00718331 -0.014119 -8.09981 192171 200054 195901 12674 -2351.58 15633.3
21 Ta 1 3.31174 9.9294 3.31048 -0.0259333 0.00491832 -0.00853858 -8.09998 194196 188041 180932 1872.82 -2443.08 -14087.4
22 Ta 1 4.96485 1.65347 4.96359 0.0135221 0.021885 0.00586784 -8.09815 179816 191389 176684 3499.58 -5249.62 18367.9
23 Ta 1 6.62021 9.92847 3.30861 -0.00852352 0.0129047 0.00921533 -8.09926 167472 182446 167016 11913.6 -12231.5 -3461.9
24 Ta 1 8.27474 1.65399 4.96395 -0.000659777 0.00435083 0.0079862 -8.09942 192329 184630 198298 -9774.2 10782.6 6388.87
25 Ta 1 0.000295404 3.30838 3.3109 -0.00175614 0.0111614 -0.0162823 -8.1017 214939 204892 196549 -1590.24 3021.7 129.387
26 Ta 1 1.65533 4.96465 4.96415 0.00640659 -0.00708057 0.0103704 -8.09975 204440 198098 202617 -9902.67 13522.4 4396.7
27 Ta 1 3.31155 3.30877 3.30962 -0.0161007 0.00974779 -0.00534798 -8.10262 218961 219357 227454 10307.6 12121 5136.75
28 Ta 1 4.96553 4.96657 4.96688 -0.0135431 -0.0219716 -0.016773 -8.10019 188935 191094 194262 -6830.92 -1821.09 -7531.39
29 Ta 1 6.62004 3.31089 3.31075 0.000993605 -0.00597929 -0.0101169 -8.10138 202685 205919 201048 -1477.68 -14428.3 -4943.68
30 Ta 1 8.27387 4.96429 4.96469 0.0181562 0.0151175 0.00102391 -8.09857 187639 195942 201978 7474.32 -12045.3 4431.62
31 Ta 1 0.00114444 6.62022 3.30914 -0.0151357 -0.00600096 0.0196399 -8.09856 175504 188306 187046 2986.39 -6282.53 -3891.1
32 Ta 1 1.65447 8.27425 4.96555 -0.00441074 0.0166224 -0.000790448 -8.10099 200065 195582 198890 -945.113 7934.66 -5016.35
33 Ta 1 3.30857 6.61985 3.31086 0.0127505 -0.00727559 -0.0122332 -8.09961 185744 193323 185012 -13544.5 -1136.22 -2237.81
34 Ta 1 4.96322 8.27315 4.96476 0.0107701 0.0163287 0.000721532 -8.09912 175711 168086 175252 8626.59 -11719 6242.89
35 Ta 1 6.62054 6.61988 3.31067 -0.00917255 -0.00625869 -0.0158864 -8.09936 194312 180312 181617 -5642.01 -1747.09 1565.32
36 Ta 1 8.27334 8.27583 4.96322 0.0287013 -0.00974885 0.0270769 -8.1009 204771 200839 198262 -4927.34 6798.56 3905.61
37 Ta 1 0.00111501 0.000982403 6.62168 -0.017524 -0.0121004 -0.0180958 -8.09891 198761 201485 203805 -8990.38 4755.69 6958.65
38 Ta 1 1.65568 1.65441 8.27363 -0.00682645 0.0131282 0.0235836 -8.10084 195063 207139 189708 -11639.2 3263.32 -8622.1
39 Ta 1 3.31104 0.00193365 6.61932 -0.0102585 -0.0278973 0.00364722 -8.09824 171959 169513 180497 4931.22 -5790.91 -1997.57
40 Ta 1 4.96468 1.65346 8.27352 0.0138669 0.0128372 0.0205073 -8.09881 181929 187048 181287 9431.15 -5237.69 4440.92
41 Ta 1 6.61912 0.0011932 6.61814 0.0110128 -0.0183442 0.0213037 -8.10049 198909 200145 209735 12537.1 12108.5 -1590.62
42 Ta 1 8.27481 1.65618 8.27587 0.000164128 -0.0144213 -0.0145874 -8.09936 193136 190994 181099 12197 -5417.45 -268.523
43 Ta 1 9.92938 3.31083 6.61866 0.00714866 -0.00720127 0.014434 -8.10088 202302 193813 201731 861.838 -253.177 3920.34
44 Ta 1 1.65314 4.96662 8.27564 0.0172614 -0.0292374 -0.00534237 -8.09952 188582 191642 189046 12813.8 -13848.7 3598.71
45 Ta 1 3.31152 3.30895 6.6215 -0.0167793 0.0175144 -0.0196952 -8.10021 203379 189597 197694 -14466.2 -9147.02 10117.8
46 Ta 1 4.96488 4.96428 8.27419 0.00950023 0.0107552 0.0115077 -8.09969 196504 190558 179740 -13308.5 7105.48 -3156.29
47 Ta 1 6.62125 3.31057 6.62153 -0.0104835 -0.0100513 -0.0145112 -8.10029 189198 192661 198652 7669.16 6513.25 10482.3
48 Ta 1 8.27509 4.96554 8.27669 3.46735e-05 0.00334059 -0.0146528 -8.10082 191079 192914 190185 -6213.02 8984.3 -10058.5
49 Ta 1 0.00157948 6.61897 6.62103 -0.0267979 0.013795 -0.0219678 -8.10031 200352 197785 194846 1752.42 8424.14 5106.27
50 Ta 1 1.65569 8.27505 8.27583 0.00225778 0.0175215 0.000694455 -8.10116 185400 187014 195183 -1346.63 -1197.76 5070.64
51 Ta 1 3.30983 6.62091 6.62137 -0.00993389 -0.0158806 -0.00731111 -8.09761 165731 186624 177586 -600.56 1629.07 -4399.41
52 Ta 1 4.96305 8.27362 8.27431 0.022637 0.0159781 0.0140254 -8.10123 210847 200764 204580 5268.59 -6421.21 -9191.58
53 Ta 1 6.61906 6.62094 6.61831 0.0225324 0.000172675 0.0253587 -8.09939 196036 195150 186991 -3815.15 -2817.39 -6484.94
54 Ta 1 8.27672 8.27547 8.27519 -0.0261067 0.0053557 -0.00705885 -8.10122 218384 212940 219569 -7283.06 2832.23 6831.79
