ITEM: TIMESTEP
10
ITEM: NUMBER OF ATOMS
54
ITEM: BOX BOUNDS xy xz yz pp pp pp
0.0000000000000000e+00 9.9299999999999997e+00 0.0000000000000000e+00
0.0000000000000000e+00 9.9299999999999997e+00 0.0000000000000000e+00
0.0000000000000000e+00 9.9299999999999997e+00 0.0000000000000000e+00
ITEM: ATOMS id element type x y z fx fy fz c_pe c_stress_tensor[1] c_stress_tensor[2] c_stress_tensor[3] c_stress_tensor[4] c_stress_tensor[5] c_stress_tensor[6]
1 Ta 1 9.91425 0.0135032 0.0172942 0.106374 -0.152128 -0.258369 -8.08767 112067 -49120.7 -63058.1 -35691.4 -147024 -135160
2 Ta 1 1.63703 1.63651 1.63743 0.301947 0.24012 0.179448 -8.09187 223473 239587 292943 25590.6 -41614.1 -117181
3 Ta 1 3.32036 0.0038039 0.0160655 -0.116206 -0.0435326 -0.153887 -8.08787 150198 262573 171715 10139.3 -17726.8 -66292.8
4 Ta 1 4.97605 1.64906 1.64305 -0.138864 0.133531 0.137897 -8.08029 68968 22508.1 68492.7 51340.2 134313 -117155
5 Ta 1 6.6109 0.0117547 0.0186509 0.0525733 -0.289824 -0.330312 -8.10404 99291.2 178111 213405 10218.2 46646.1 -78497.6
6 Ta 1 8.26126 1.64929 1.63688 0.0601735 0.117293 0.320543 -8.06781 -202551 -18395.4 -131351 56132.5 -57288.9 65985.2
7 Ta 1 9.921 3.29753 0.014096 0.196109 0.122333 -0.165648 -8.08543 117860 54261.2 222915 10674.1 -84371.4 22261.3
8 Ta 1 1.64366 4.9816 1.64477 0.0902304 -0.316454 0.14318 -8.0951 144923 255927 138130 -43579.7 105664 -15227
9 Ta 1 3.32674 3.32744 9.92239 -0.213588 -0.220014 0.0800618 -8.11704 415581 270112 303400 -78145.7 -24480.1 -8280.96
10 Ta 1 4.97012 4.96602 1.64321 0.0193872 0.0495135 0.191152 -8.08789 261818 212543 271608 -17492.6 -95095.2 53885.2
11 Ta 1 6.63597 3.30411 0.0187004 -0.209615 0.114329 -0.19881 -8.09407 30887.9 52655.3 124299 104389 125331 85870.1
12 Ta 1 8.2926 4.98234 1.63749 -0.0957908 -0.118183 0.222085 -8.1095 160782 182397 157144 -3790.62 -30331.5 -128868
13 Ta 1 0.0164947 6.63572 9.92432 -0.174476 -0.0167601 0.0434802 -8.06523 -122245 -8356.66 -155658 9268.3 31594.2 63262.5
14 Ta 1 1.63968 8.28319 1.65819 0.186823 0.0191571 0.000762136 -8.09835 63116.5 -22457.2 130294 -12043.3 46598 -8595.74
15 Ta 1 3.30001 6.60797 0.0193405 0.134597 0.154576 -0.12767 -8.09725 77059.2 101817 128203 -85450.8 -21753.1 150424
16 Ta 1 4.95748 8.27655 1.66308 0.0521324 -0.1788 -0.0834184 -8.09245 193996 103324 167728 -10269.5 -36720.8 -37530.9
17 Ta 1 6.62404 6.62056 9.92512 -0.0887976 0.114942 -0.00314245 -8.09525 272708 299281 309842 57730.4 13485.3 24191.5
18 Ta 1 8.27881 8.26861 1.66361 -0.0863303 -0.0280674 -0.167543 -8.09407 40040.9 -11007.3 31676.1 -42017.2 8020.44 -46605.5
19 Ta 1 9.91545 0.0017379 3.29271 0.146695 0.00144285 0.233438 -8.08974 148569 62813.5 86327 -47404.1 149016 -79294.1
20 Ta 1 1.65763 1.64275 4.97135 -0.0125422 0.0724308 -0.13996 -8.09993 208047 284853 242069 125204 -24543.8 154777
21 Ta 1 3.32718 9.92406 3.31473 -0.256616 0.046843 -0.0849824 -8.10061 223565 157944 91891.5 19544 -24877 -139031
22 Ta 1 4.96362 1.63984 4.9509 0.130947 0.214006 0.0551499 -8.08214 78387 191868 45708 31480.5 -58575.4 179186
23 Ta 1 6.62206 9.9148 3.29623 -0.0849999 0.130067 0.0897898 -8.09359 -40409.2 106594 -44753.3 118021 -121565 -30010.2
24 Ta 1 8.27235 1.64489 4.95456 -0.00586871 0.0448339 0.0789831 -8.09654 207685 133280 266834 -97617.6 109820 62891
25 Ta 1 0.00293946 3.29394 3.31888 -0.0154369 0.110919 -0.159685 -8.1183 428606 332014 251921 -17130.7 28741.9 1239.18
26 Ta 1 1.65836 4.96141 4.95663 0.059141 -0.0694238 0.101417 -8.09922 327988 265209 310904 -98635.5 132009 47228.9
27 Ta 1 3.32535 3.29782 3.30612 -0.156534 0.0971674 -0.0486741 -8.1262 464688 469652 548045 101909 112793 50584.6
28 Ta 1 4.97022 4.98052 4.98367 -0.134816 -0.219435 -0.167025 -8.10255 171775 188825 223685 -70558.3 -20631.2 -75351.9
29 Ta 1 6.62045 3.31884 3.31737 0.00646824 -0.0622547 -0.0989888 -8.11498 307345 339415 294644 -18469.5 -141183 -48475.5
30 Ta 1 8.26381 4.95807 4.96194 0.177912 0.146762 0.0114955 -8.087 161271 241133 299794 70890 -121678 43415.6
31 Ta 1 0.0113118 6.62214 3.30157 -0.149474 -0.0576274 0.193154 -8.08716 41944.4 167093 151699 28305.8 -60194.2 -38534.6
32 Ta 1 1.64962 8.26767 4.97051 -0.0421966 0.161499 -0.00670275 -8.11173 285612 241908 272927 -7845.65 77145.9 -48114.9
33 Ta 1 3.29586 6.61843 3.31853 0.125171 -0.0698763 -0.120942 -8.09762 140142 216305 136116 -134470 -10251 -22192.2
34 Ta 1 4.94728 8.25668 4.96256 0.105512 0.162076 0.00795538 -8.09277 43008.2 -32758 37537.6 83688.7 -118457 65316.7
35 Ta 1 6.62531 6.6187 3.31659 -0.0907013 -0.0619373 -0.156577 -8.09569 229486 88132.7 104096 -56841.5 -18966.5 15538.7
36 Ta 1 8.25869 8.28323 4.94741 0.276862 -0.0948283 0.263102 -8.10793 323501 277318 253683 -46515.5 58696.5 41337.2
37 Ta 1 0.0109968 0.00971894 6.63661 -0.172368 -0.117161 -0.176764 -8.08965 266065 292364 316387 -96311.9 44586.8 64032.2
38 Ta 1 1.66175 1.64923 8.26153 -0.0657284 0.130238 0.234178 -8.10879 230826 347798 181861 -117871 28889.1 -87724.6
39 Ta 1 3.32032 0.0190905 6.61327 -0.100259 -0.279414 0.0344846 -8.08304 1169.74 -15711.8 85527.5 44389.7 -59186.4 -21860.6
40 Ta 1 4.96189 1.63967 8.26034 0.13763 0.123468 0.205356 -8.08898 102358 153202 96884.5 89650.5 -57866.7 37034.3
41 Ta 1 6.61129 0.0117719 6.60163 0.109238 -0.179672 0.204885 -8.10496 265260 282210 368703 125010 119425 -10308.6
42 Ta 1 8.27306 1.66669 8.28355 0.00317984 -0.142353 -0.144483 -8.09532 217614 195355 94645.2 119560 -55091.3 -2548.34
43 Ta 1 9.92387 3.31826 6.60668 0.070562 -0.0723207 0.141982 -8.11048 306704 226706 301889 7715.26 -3103.01 39461.9
44 Ta 1 1.63651 4.98096 8.28134 0.175778 -0.290817 -0.0478463 -8.09519 167182 196733 165378 130223 -135835 37112
45 Ta 1 3.32505 3.29961 6.63478 -0.163533 0.170733 -0.197325 -8.10224 311909 172495 253688 -140686 -91790.8 98571.4
46 Ta 1 4.96389 4.95786 8.26696 0.094269 0.110196 0.111137 -8.0979 247072 186444 81927.8 -131456 71012.1 -29681.8
47 Ta 1 6.63246 3.31559 6.63516 -0.101108 -0.094783 -0.140034 -8.10418 173524 212009 267042 74406.4 59564.9 100370
48 Ta 1 8.27588 4.97041 8.29174 0.00279083 0.0296306 -0.144964 -8.10974 195178 214391 186338 -56735 87517 -98501.2
49 Ta 1 0.0155615 6.60981 6.63015 -0.260527 0.135534 -0.214114 -8.10275 280000 252547 222353 24113.4 73878.1 60090.7
50 Ta 1 1.66188 8.27568 8.28326 0.0218316 0.17045 0.00438639 -8.11278 135699 154461 234563 -14066.4 -5565.28 50018.9
51 Ta 1 3.30823 6.62899 6.63363 -0.0995331 -0.159258 -0.074643 -8.07762 -55764.3 149893 61298.5 -10158.4 13375.3 -49170.4
52 Ta 1 4.94565 8.26138 8.26827 0.220418 0.158128 0.140108 -8.11214 375703 287116 325375 41138.8 -67597.2 -94487.8
53 Ta 1 6.61084 6.62945 6.60332 0.222592 0.0043288 0.251576 -8.0946 238803 230558 153255 -40292.7 -32850.8 -65577.5
54 Ta 1 8.29193 8.27974 8.27685 -0.251433 0.0483735 -0.0686789 -8.11252 460050 405576 472811 -68385.1 27657.2 66545.6
