ITEM: TIMESTEP
8
ITEM: NUMBER OF ATOMS
54
ITEM: BOX BOUNDS xy xz yz pp pp pp
0.0000000000000000e+00 9.9299999999999997e+00 0.0000000000000000e+00
0.0000000000000000e+00 9.9299999999999997e+00 0.0000000000000000e+00
0.0000000000000000e+00 9.9299999999999997e+00 0.0000000000000000e+00
ITEM: ATOMS id element type x y z fx fy fz c_pe c_stress_tensor[1] c_stress_tensor[2] c_stress_tensor[3] c_stress_tensor[4] c_stress_tensor[5] c_stress_tensor[6]
1 Ta 1 9.91737 0.0108411 0.0139014 0.0865003 -0.12107 -0.206906 -8.09063 129749 -4.84608 -11580.5 -28506.7 -117937 -107612
2 Ta 1 1.64055 1.64015 1.6409 0.242744 0.193069 0.143586 -8.09418 220277 233716 275679 21683.1 -32574.5 -94377.3
3 Ta 1 3.31832 0.00305431 0.0128918 -0.0935011 -0.0349737 -0.123423 -8.09042 159333 248780 175517 8278.67 -13597.1 -53164.4
4 Ta 1 4.97387 1.65021 1.64541 -0.110888 0.106543 0.110044 -8.0845 95562.2 56522.2 93272.7 40710.6 107321 -93259.6
5 Ta 1 6.61271 0.00947831 0.0150057 0.0417536 -0.23278 -0.265444 -8.10394 120210 183322 212480 8160.99 37440.3 -60960.8
6 Ta 1 8.26399 1.6504 1.64042 0.0475313 0.0949745 0.256586 -8.07478 -122075 25073.7 -66922.8 44415.8 -45591.9 52801.1
7 Ta 1 9.92275 3.3 0.0113197 0.158045 0.0975551 -0.133612 -8.08862 133366 82559.8 217015 8067.97 -67802.5 18061.6
8 Ta 1 1.6459 4.97836 1.64678 0.0730567 -0.254617 0.115377 -8.09656 156263 244976 150609 -35054 84644.9 -13265
9 Ta 1 3.32345 3.32401 9.92389 -0.172026 -0.176667 0.0645989 -8.11411 372589 255448 283579 -62017.9 -20284.4 -7125.65
10 Ta 1 4.96909 4.96581 1.64552 0.01521 0.0402143 0.153983 -8.09043 248671 209055 256564 -14296.7 -76163.8 43742
11 Ta 1 6.63283 3.30526 0.0150117 -0.168786 0.0903311 -0.160137 -8.09569 64395 82223.2 138633 83345.3 101879 68365.5
12 Ta 1 8.2891 4.9789 1.64093 -0.0765604 -0.0952713 0.179141 -8.10792 168296 185723 164504 -2963.27 -24291.6 -103930
13 Ta 1 0.0132403 6.63258 9.92544 -0.139666 -0.0136739 0.0346463 -8.07238 -60066.7 32202.3 -86750.8 7154.03 25055.5 51025.1
14 Ta 1 1.6427 8.28155 1.65756 0.149853 0.015703 0.00069965 -8.0988 88412.4 20427 142591 -9867.78 37317.8 -6751.95
15 Ta 1 3.30198 6.61034 0.0155048 0.107985 0.123575 -0.101864 -8.09803 101168 119983 140740 -68608.8 -17976.1 120797
16 Ta 1 4.95897 8.27628 1.66149 0.0419385 -0.143799 -0.0669163 -8.09407 194018 121162 173151 -8422.67 -29525.1 -29937.5
17 Ta 1 6.62326 6.62042 9.9261 -0.071351 0.0925565 -0.00269126 -8.09627 257268 278571 286927 46094.8 10724.6 19978.5
18 Ta 1 8.27807 8.2699 1.66193 -0.0695261 -0.0226534 -0.134533 -8.09538 70154.3 29258.5 63371.3 -33750.7 6362.82 -36977.2
19 Ta 1 9.91832 0.00139009 3.29611 0.118375 0.000896871 0.187726 -8.09211 158480 89342.9 108809 -38357.5 119605 -63628
20 Ta 1 1.65711 1.64518 4.97011 -0.00975315 0.0578614 -0.112451 -8.10007 204877 266868 232729 100562 -19464.5 124310
21 Ta 1 3.32381 9.92524 3.31381 -0.206188 0.0379475 -0.068188 -8.1008 218242 166357 112577 15487.8 -19788.8 -111712
22 Ta 1 4.96386 1.64282 4.95371 0.105765 0.172352 0.0446909 -8.08602 102023 193336 76050.7 25811.3 -45867.7 144336
23 Ta 1 6.62167 9.9178 3.29896 -0.0681727 0.104125 0.0723415 -8.09513 6078.97 124357 2532.59 94789.1 -97576.1 -24818.9
24 Ta 1 8.27288 1.6469 4.95663 -0.00484512 0.0356087 0.0634156 -8.09727 205010 144893 252505 -78281.1 87590.3 50571.5
25 Ta 1 0.0023557 3.29713 3.31715 -0.012714 0.0889616 -0.128585 -8.11488 382933 304897 240116 -13479.7 23298.9 955.884
26 Ta 1 1.65767 4.96215 4.95827 0.0483453 -0.055917 0.081674 -8.09951 301578 251078 287654 -79088 106341 37211
27 Ta 1 3.32232 3.30023 3.30691 -0.126197 0.0778759 -0.0398959 -8.12143 412668 416472 479708 81769.1 91827.7 40729.3
28 Ta 1 4.96921 4.97747 4.97998 -0.108231 -0.175924 -0.133944 -8.10236 176456 190922 218280 -56189.1 -16220.2 -60483.7
29 Ta 1 6.62035 3.31709 3.31592 0.00575053 -0.0494919 -0.0797231 -8.11225 285576 311343 274751 -14173.2 -113690 -39005.5
30 Ta 1 8.266 4.95942 4.96255 0.143265 0.118462 0.00896876 -8.0898 167675 232244 279559 57535.5 -97213.4 34939.7
31 Ta 1 0.00908789 6.62173 3.30321 -0.120195 -0.0466318 0.155423 -8.08988 71724.1 172488 160684 23010 -48682.6 -30869.2
32 Ta 1 1.65071 8.2691 4.96941 -0.0342537 0.130324 -0.00552616 -8.10952 267388 232114 257298 -6497.95 62209.7 -38912.9
33 Ta 1 3.29865 6.61876 3.31685 0.100761 -0.0565556 -0.0971973 -8.09826 151160 212124 147367 -107832 -8412.63 -17870.2
34 Ta 1 4.95079 8.2603 4.96305 0.0848554 0.13011 0.00623311 -8.09437 72664.3 11876.3 68475.1 67471.2 -94678.4 51886.4
35 Ta 1 6.62427 6.61898 3.31531 -0.0728894 -0.0498299 -0.126021 -8.09663 222136 109114 121350 -45510.9 -14895 12452.9
36 Ta 1 8.26188 8.28161 4.95086 0.223742 -0.0764465 0.212273 -8.10696 299322 263533 244211 -37775.5 48576 32698.3
37 Ta 1 0.00884191 0.00780552 6.63334 -0.138686 -0.0946019 -0.142394 -8.09205 252887 274055 293230 -76072.8 36207.3 52303
38 Ta 1 1.66041 1.65035 8.26416 -0.0531505 0.104605 0.188064 -8.10742 224209 318708 184191 -94159.2 23810.4 -70008.2
39 Ta 1 3.31828 0.015344 6.61461 -0.0807505 -0.223937 0.0279467 -8.08675 39959.5 25038.2 107731 36416.9 -47155.4 -17182.4
40 Ta 1 4.96248 1.64271 8.26322 0.110561 0.0997048 0.164539 -8.09145 120784 161567 116201 72618.9 -45445.9 30927.7
41 Ta 1 6.613 0.00946388 6.60525 0.0877449 -0.144623 0.165626 -8.10441 252614 265401 336344 100169 95995.3 -9261.91
42 Ta 1 8.27345 1.66439 8.28188 0.00226864 -0.114435 -0.116098 -8.09639 212639 194937 114478 96141.7 -43941.8 -2121.8
43 Ta 1 9.92508 3.31663 6.60931 0.0567186 -0.0578359 0.114198 -8.10853 284417 219437 280378 6388.67 -2370.27 31550.6
44 Ta 1 1.64017 4.97784 8.28009 0.140285 -0.233445 -0.0393254 -8.09658 173004 196872 172708 104043 -109324 29457
45 Ta 1 3.32209 3.30164 6.63188 -0.13181 0.137716 -0.158117 -8.10222 289553 178106 243132 -113409 -73535.2 79358.2
46 Ta 1 4.96409 4.95926 8.26854 0.0757268 0.0878471 0.08975 -8.09858 236910 188514 104158 -105618 56955.5 -24104.8
47 Ta 1 6.62999 3.31449 6.63216 -0.0816499 -0.077013 -0.113025 -8.10357 178064 208214 253194 59957 48705.2 81182.7
48 Ta 1 8.2757 4.96932 8.28843 0.00179584 0.0244696 -0.116422 -8.10797 194955 210142 187804 -46402.6 70503.4 -79307.6
49 Ta 1 0.0125167 6.61181 6.62818 -0.210183 0.108981 -0.172669 -8.10269 264296 242545 218515 18201.2 61001 46449.6
50 Ta 1 1.6605 8.2755 8.28161 0.0177272 0.137557 0.00405937 -8.11048 147786 162288 226830 -11169.7 -5659.95 40159.9
51 Ta 1 3.30861 6.62724 6.63092 -0.0797666 -0.127578 -0.0595077 -8.08224 -6694.5 158787 87411.2 -7395.21 11217.8 -38449.3
52 Ta 1 4.94947 8.26406 8.26958 0.177685 0.126994 0.112378 -8.1102 342735 269574 300191 34948.2 -53503.3 -75256.3
53 Ta 1 6.61261 6.62756 6.60659 0.178967 0.00311434 0.202023 -8.09599 230946 224217 161526 -31870.1 -25515.2 -52438.2
54 Ta 1 8.28861 8.27878 8.2765 -0.203219 0.0397356 -0.0553797 -8.11042 408800 365170 418923 -55502.7 22335.3 53670.6
