ITEM: TIMESTEP
0
ITEM: NUMBER OF ATOMS
54
ITEM: BOX BOUNDS xy xz yz pp pp pp
0.0000000000000000e+00 9.9299999999999997e+00 0.0000000000000000e+00
0.0000000000000000e+00 9.9299999999999997e+00 0.0000000000000000e+00
0.0000000000000000e+00 9.9299999999999997e+00 0.0000000000000000e+00
ITEM: ATOMS id element type x y z fx fy fz c_pe c_stress_tensor[1] c_stress_tensor[2] c_stress_tensor[3] c_stress_tensor[4] c_stress_tensor[5] c_stress_tensor[6]
1 Ta 1 9.91425 0.0135032 0.0172942 0.106352 -0.152123 -0.258381 -8.08767 112063 -49146.1 -63077.2 -35691.2 -147044 -135174
2 Ta 1 1.63703 1.63651 1.63743 0.302009 0.240131 0.179456 -8.09187 223447 239548 292938 25591.5 -41593.6 -117153
3 Ta 1 3.32036 0.0038039 0.0160655 -0.116231 -0.043533 -0.153877 -8.08787 150143 262541 171674 10146.6 -17731.1 -66272.1
4 Ta 1 4.97605 1.64906 1.64305 -0.13886 0.133527 0.137938 -8.08028 68983 22485.4 68482 51367.2 134306 -117162
5 Ta 1 6.6109 0.0117547 0.0186509 0.0526239 -0.289804 -0.330297 -8.10403 99251.6 178086 213383 10255.5 46668 -78474.8
6 Ta 1 8.26126 1.64929 1.63688 0.0601447 0.117233 0.320543 -8.06781 -202561 -18362.4 -131342 56128.9 -57271.7 65975.5
7 Ta 1 9.921 3.29753 0.014096 0.19607 0.122364 -0.165661 -8.08543 117881 54265.2 222907 10657.4 -84365.9 22320.4
8 Ta 1 1.64366 4.9816 1.64477 0.090211 -0.316424 0.143168 -8.0951 144899 255928 138146 -43561.9 105664 -15218.4
9 Ta 1 3.32674 3.32744 9.92239 -0.213613 -0.220015 0.0799928 -8.11704 415566 270113 303416 -78146.7 -24503.9 -8303.27
10 Ta 1 4.97012 4.96602 1.64321 0.0194567 0.0495595 0.191192 -8.08789 261816 212546 271587 -17512.4 -95046.7 53873.7
11 Ta 1 6.63597 3.30411 0.0187004 -0.209583 0.114298 -0.198809 -8.09407 30901 52663.7 124318 104401 125331 85898.4
12 Ta 1 8.2926 4.98234 1.63749 -0.0958182 -0.118215 0.222039 -8.1095 160818 182389 157154 -3824.58 -30341.9 -128865
13 Ta 1 0.0164947 6.63572 9.92432 -0.174464 -0.016758 0.0434284 -8.06523 -122229 -8337.95 -155642 9252.74 31595 63211.3
14 Ta 1 1.63968 8.28319 1.65819 0.186845 0.0191319 0.000803494 -8.09835 63121.3 -22465.2 130300 -12037.1 46596.9 -8632.64
15 Ta 1 3.30001 6.60797 0.0193405 0.134587 0.154578 -0.127668 -8.09725 77054.7 101823 128203 -85438.8 -21724.3 150420
16 Ta 1 4.95748 8.27655 1.66308 0.0521372 -0.17883 -0.0833851 -8.09245 193992 103334 167709 -10256.6 -36669.8 -37518.3
17 Ta 1 6.62404 6.62056 9.92512 -0.088769 0.114921 -0.00312244 -8.09525 272700 299249 309832 57690.5 13458.3 24148.5
18 Ta 1 8.27881 8.26861 1.66361 -0.0863127 -0.0280143 -0.167478 -8.09407 40058.1 -10970.6 31706.9 -42026.6 8029.87 -46606.8
19 Ta 1 9.91545 0.0017379 3.29271 0.146637 0.00140282 0.233459 -8.08974 148602 62839.2 86346.1 -47384.1 149052 -79298.2
20 Ta 1 1.65763 1.64275 4.97135 -0.0125245 0.0724255 -0.14002 -8.09993 208034 284858 242066 125193 -24580 154764
21 Ta 1 3.32718 9.92406 3.31473 -0.256638 0.0468787 -0.0849839 -8.10061 223570 157972 91905 19549 -24900.4 -139039
22 Ta 1 4.96362 1.63984 4.9509 0.130958 0.214059 0.0551741 -8.08214 78408.8 191886 45734.5 31489.1 -58548 179184
23 Ta 1 6.62206 9.9148 3.29623 -0.0849876 0.130037 0.0897178 -8.09359 -40383.5 106588 -44742.1 118018 -121570 -30010.5
24 Ta 1 8.27235 1.64489 4.95456 -0.00588446 0.0448342 0.0790343 -8.09654 207676 133279 266815 -97614 109783 62907.3
25 Ta 1 0.00293946 3.29394 3.31888 -0.0154156 0.110962 -0.159646 -8.1183 428599 331999 251920 -17147.8 28742.2 1264.46
26 Ta 1 1.65836 4.96141 4.95663 0.0590994 -0.0693937 0.101371 -8.09922 327994 265205 310896 -98607.9 131981 47257.1
27 Ta 1 3.32535 3.29782 3.30612 -0.156568 0.0970968 -0.048645 -8.1262 464706 469666 548011 101921 112791 50600
28 Ta 1 4.97022 4.98052 4.98367 -0.134761 -0.219468 -0.166998 -8.10255 171755 188846 223708 -70552.5 -20629.5 -75340.7
29 Ta 1 6.62045 3.31884 3.31737 0.00641521 -0.0622143 -0.0990224 -8.11498 307350 339427 294680 -18476 -141191 -48485.5
30 Ta 1 8.26381 4.95807 4.96194 0.177965 0.146727 0.0115186 -8.087 161292 241124 299783 70869.7 -121681 43435.3
31 Ta 1 0.0113118 6.62214 3.30157 -0.149457 -0.0575975 0.193155 -8.08716 41966.5 167132 151703 28263.8 -60212.8 -38563.8
32 Ta 1 1.64962 8.26767 4.97051 -0.0421735 0.161519 -0.00671356 -8.11173 285638 241921 272926 -7864.78 77164.9 -48109.2
33 Ta 1 3.29586 6.61843 3.31853 0.125125 -0.0698709 -0.120962 -8.09762 140163 216287 136135 -134461 -10266.7 -22209.6
34 Ta 1 4.94728 8.25668 4.96256 0.10548 0.162068 0.00801537 -8.09277 43002.8 -32776.8 37552.6 83689.9 -118475 65303.5
35 Ta 1 6.62531 6.6187 3.31659 -0.090743 -0.0619501 -0.156634 -8.09569 229458 88143.8 104090 -56819.7 -18938.9 15537
36 Ta 1 8.25869 8.28323 4.94741 0.276923 -0.0947983 0.263064 -8.10793 323478 277294 253699 -46514.3 58663.4 41330.6
37 Ta 1 0.0109968 0.00971894 6.63661 -0.172384 -0.117162 -0.176764 -8.08965 266031 292333 316377 -96296.3 44582.4 64052.8
38 Ta 1 1.66175 1.64923 8.26153 -0.0657547 0.130275 0.234194 -8.10879 230830 347765 181834 -117841 28910.6 -87731.5
39 Ta 1 3.32032 0.0190905 6.61327 -0.100226 -0.279436 0.0344514 -8.08304 1137.75 -15717.7 85498.9 44389.5 -59163.8 -21833.8
40 Ta 1 4.96189 1.63967 8.26034 0.137602 0.123537 0.205318 -8.08898 102356 153235 96893.7 89645.5 -57850 37026.9
41 Ta 1 6.61129 0.0117719 6.60163 0.109229 -0.179662 0.204858 -8.10496 265247 282200 368663 125035 119402 -10344.8
42 Ta 1 8.27306 1.66669 8.28355 0.00319806 -0.142323 -0.144436 -8.09533 217633 195355 94663.6 119558 -55112.4 -2540.52
43 Ta 1 9.92387 3.31826 6.60668 0.0705332 -0.0723274 0.141957 -8.11048 306683 226720 301898 7692.98 -3079.31 39432
44 Ta 1 1.63651 4.98096 8.28134 0.175805 -0.290796 -0.0478139 -8.09519 167184 196760 165376 130185 -135821 37096.6
45 Ta 1 3.32505 3.29961 6.63478 -0.163442 0.170714 -0.197247 -8.10225 311940 172498 253734 -140677 -91785.7 98587.4
46 Ta 1 4.96389 4.95786 8.26696 0.0942325 0.11013 0.111092 -8.0979 247090 186459 81926 -131422 70996 -29663.7
47 Ta 1 6.63246 3.31559 6.63516 -0.101151 -0.0947976 -0.140056 -8.10419 173595 212058 267075 74404.7 59564.3 100397
48 Ta 1 8.27588 4.97041 8.29174 0.00278517 0.0296422 -0.144958 -8.10974 195164 214419 186364 -56745.9 87512 -98505.9
49 Ta 1 0.0155615 6.60981 6.63015 -0.260539 0.135493 -0.2141 -8.10275 279999 252548 222374 24092.5 73872.8 60112.7
50 Ta 1 1.66188 8.27568 8.28326 0.0218309 0.170393 0.0044291 -8.11278 135695 154452 234546 -14064.9 -5582.01 50016
51 Ta 1 3.30823 6.62899 6.63363 -0.0995411 -0.159212 -0.0746671 -8.07762 -55756.3 149885 61294.2 -10148.8 13350.5 -49201.1
52 Ta 1 4.94565 8.26138 8.26827 0.220437 0.158132 0.140093 -8.11213 375674 287064 325361 41139.3 -67602.1 -94493.5
53 Ta 1 6.61084 6.62945 6.60332 0.22255 0.00431412 0.251567 -8.0946 238798 230549 153229 -40304.3 -32819.8 -65564.8
54 Ta 1 8.29193 8.27974 8.27685 -0.2514 0.0483418 -0.0686809 -8.11252 460052 405567 472780 -68395.8 27648.7 66523.3
