ITEM: TIMESTEP
0
ITEM: NUMBER OF ATOMS
54
ITEM: BOX BOUNDS xy xz yz pp pp pp
0.0000000000000000e+00 9.9299999999999997e+00 0.0000000000000000e+00
0.0000000000000000e+00 9.9299999999999997e+00 0.0000000000000000e+00
0.0000000000000000e+00 9.9299999999999997e+00 0.0000000000000000e+00
ITEM: ATOMS id element type x y z fx fy fz c_pe c_stress_tensor[1] c_stress_tensor[2] c_stress_tensor[3] c_stress_tensor[4] c_stress_tensor[5] c_stress_tensor[6]
1 Ta 1 0 0 0 3.10862e-15 2.9976e-15 3.05311e-15 -8.09968 190113 190113 190113 1.24514e-09 1.55643e-09 1.51196e-09
2 Ta 1 1.655 1.655 1.655 1.11022e-16 3.29597e-17 6.76542e-17 -8.09968 190113 190113 190113 2.39023e-10 -1.05615e-10 -6.39247e-11
3 Ta 1 3.31 0 0 3.60822e-16 3.55271e-15 3.33067e-15 -8.09968 190113 190113 190113 -4.44693e-11 1.11173e-11 3.58534e-10
4 Ta 1 4.965 1.655 1.655 1.94289e-16 8.32667e-17 -1.21431e-16 -8.09968 190113 190113 190113 -5.55867e-11 -1.44525e-10 1.86215e-10
5 Ta 1 6.62 0 0 -1.11022e-15 1.46758e-15 1.36176e-15 -8.09968 190113 190113 190113 -2.44581e-10 -3.22403e-10 -2.32908e-09
6 Ta 1 8.275 1.655 1.655 -1.66533e-15 9.99201e-16 7.77156e-16 -8.09968 190113 190113 190113 8.89387e-10 1.24514e-09 -1.06726e-09
7 Ta 1 0 3.31 0 3.21965e-15 -4.996e-16 4.60743e-15 -8.09968 190113 190113 190113 7.11509e-10 -9.78325e-10 -1.1562e-09
8 Ta 1 1.655 4.965 1.655 1.38778e-16 3.1225e-16 7.28584e-17 -8.09968 190113 190113 190113 6.6704e-11 -1.19511e-10 -5.55867e-12
9 Ta 1 3.31 3.31 0 2.77556e-16 8.67362e-17 3.69496e-15 -8.09968 190113 190113 190113 3.3352e-11 -2.33464e-10 -1.44525e-10
10 Ta 1 4.965 4.965 1.655 2.77556e-16 4.78784e-16 1.8735e-16 -8.09968 190113 190113 190113 3.3352e-10 -3.66872e-10 -2.22347e-11
11 Ta 1 6.62 3.31 0 -9.99201e-16 -1.47105e-15 2.05391e-15 -8.09968 190113 190113 190113 -2.22347e-11 -4.89163e-10 2.22698e-09
12 Ta 1 8.275 4.965 1.655 -2.22045e-15 2.55351e-15 5.55112e-17 -8.09968 190113 190113 190113 2.22347e-09 -1.77877e-10 -8.89387e-11
13 Ta 1 0 6.62 0 2.10942e-15 -1.05471e-15 1.55431e-15 -8.09968 190113 190113 190113 -2.66816e-10 -2.13453e-09 -1.77877e-10
14 Ta 1 1.655 8.275 1.655 -2.77556e-17 -2.25514e-15 1.53523e-15 -8.09968 190113 190113 190113 4.44693e-11 -0 1.97333e-09
15 Ta 1 3.31 6.62 0 -1.66533e-15 -1.13451e-15 1.75207e-15 -8.09968 190113 190113 190113 -7.78213e-11 2.39023e-09 -5.8366e-10
16 Ta 1 4.965 8.275 1.655 2.30371e-15 -2.33667e-15 -4.85723e-16 -8.09968 190113 190113 190113 2.37911e-09 -8.89387e-11 -3.64093e-10
17 Ta 1 6.62 6.62 0 -9.99201e-16 -8.88178e-16 1.11022e-16 -8.09968 190113 190113 190113 -1.44525e-10 -2.44581e-10 -4.26869e-10
18 Ta 1 8.275 8.275 1.655 -3.33067e-15 -3.48679e-15 9.99201e-16 -8.09968 190113 190113 190113 -3.86883e-09 1.24514e-09 1.1562e-09
19 Ta 1 0 0 3.31 3.27516e-15 3.16414e-15 -2.66454e-15 -8.09968 190113 190113 190113 -9.33856e-10 8.89387e-10 8.00448e-10
20 Ta 1 1.655 1.655 4.965 8.32667e-17 1.14492e-16 1.31839e-16 -8.09968 190113 190113 190113 2.05671e-10 -2.00112e-10 -2.39023e-10
21 Ta 1 3.31 0 3.31 -6.38378e-16 3.33067e-15 -9.33281e-16 -8.09968 190113 190113 190113 1.05615e-09 1.1562e-09 7.14289e-10
22 Ta 1 4.965 1.655 4.965 4.44089e-16 1.76942e-16 3.00107e-16 -8.09968 190113 190113 190113 -3.77989e-10 2.77933e-10 -1.69539e-10
23 Ta 1 6.62 0 3.31 -1.05471e-15 2.16147e-15 -1.73472e-15 -8.09968 190113 190113 190113 -4.66928e-10 -0 1.97611e-09
24 Ta 1 8.275 1.655 4.965 -2.22045e-15 3.33067e-16 2.10942e-15 -8.09968 190113 190113 190113 3.55755e-10 2.04559e-09 8.89387e-11
25 Ta 1 0 3.31 3.31 3.30291e-15 -6.66134e-16 -4.996e-16 -8.09968 190113 190113 190113 9.78325e-10 8.89387e-10 1.06726e-09
26 Ta 1 1.655 4.965 4.965 0 5.27356e-16 2.70617e-16 -8.09968 190113 190113 190113 -2.77933e-10 -1.77877e-10 3.89107e-11
27 Ta 1 3.31 3.31 3.31 -2.77556e-16 -6.14092e-16 -4.23273e-16 -8.09968 190113 190113 190113 -1.13397e-09 -1.14509e-09 -1.10895e-09
28 Ta 1 4.965 4.965 4.965 1.44329e-15 1.46584e-15 1.34094e-15 -8.09968 190113 190113 190113 -1.11173e-09 -1.03391e-09 -9.53311e-10
29 Ta 1 6.62 3.31 3.31 -1.16573e-15 3.53884e-16 4.996e-16 -8.09968 190113 190113 190113 4.44693e-11 -8.89387e-11 1.05723e-10
30 Ta 1 8.275 4.965 4.965 -2.22045e-15 2.498e-15 4.996e-16 -8.09968 190113 190113 190113 2.13453e-09 -3.55755e-10 -0
31 Ta 1 0 6.62 3.31 1.27676e-15 -1.94289e-15 -5.55112e-16 -8.09968 190113 190113 190113 5.33632e-10 9.78325e-10 -8.89387e-10
32 Ta 1 1.655 8.275 4.965 2.77556e-16 -2.16493e-15 1.77636e-15 -8.09968 190113 190113 190113 3.11285e-10 -2.22347e-10 1.80379e-09
33 Ta 1 3.31 6.62 3.31 5.06539e-16 -1.19002e-15 -3.98986e-17 -8.09968 190113 190113 190113 -5.55867e-11 -8.89387e-11 -4.72487e-11
34 Ta 1 4.965 8.275 4.965 1.48492e-15 -3.00454e-15 1.05471e-15 -8.09968 190113 190113 190113 1.07838e-09 1.26738e-09 8.78269e-10
35 Ta 1 6.62 6.62 3.31 -9.99201e-16 -1.0339e-15 -2.77556e-17 -8.09968 190113 190113 190113 2.66816e-10 -1.33408e-10 -2.22347e-11
36 Ta 1 8.275 8.275 4.965 -2.9976e-15 -3.21271e-15 2.9976e-15 -8.09968 190113 190113 190113 -1.11173e-09 7.11509e-10 8.00448e-10
37 Ta 1 0 0 6.62 2.33147e-15 2.41474e-15 -2.88658e-15 -8.09968 190113 190113 190113 -2.66816e-10 -1.77877e-10 -1.77877e-10
38 Ta 1 1.655 1.655 8.275 2.77556e-16 2.18575e-16 -3.97252e-15 -8.09968 190113 190113 190113 2.77933e-10 4.00224e-10 2.5014e-10
39 Ta 1 3.31 0 6.62 -7.07767e-16 2.66974e-15 -2.05044e-15 -8.09968 190113 190113 190113 1.28961e-09 1.06726e-09 3.64093e-10
40 Ta 1 4.965 1.655 8.275 2.51188e-15 -5.20417e-17 -1.77289e-15 -8.09968 190113 190113 190113 -1.00056e-10 2.07894e-09 4.03003e-10
41 Ta 1 6.62 0 6.62 -9.99201e-16 7.97973e-17 -8.72566e-16 -8.09968 190113 190113 190113 -2.77933e-10 3.3352e-11 -7.19847e-10
42 Ta 1 8.275 1.655 8.275 -4.95437e-15 1.05471e-15 -2.88658e-15 -8.09968 190113 190113 190113 1.1562e-09 -3.51308e-09 -1.24514e-09
43 Ta 1 0 3.31 6.62 2.02616e-15 -1.60982e-15 -9.4369e-16 -8.09968 190113 190113 190113 2.22347e-09 -9.78325e-10 8.89387e-11
44 Ta 1 1.655 4.965 8.275 8.32667e-17 2.498e-15 -1.80411e-15 -8.09968 190113 190113 190113 -4.00224e-10 3.3352e-10 1.91496e-09
45 Ta 1 3.31 3.31 6.62 2.84495e-16 2.51535e-16 -1.29237e-15 -8.09968 190113 190113 190113 2.77933e-10 1.11173e-11 2.52919e-10
46 Ta 1 4.965 4.965 8.275 1.47798e-15 1.50747e-15 -2.7478e-15 -8.09968 190113 190113 190113 1.31185e-09 8.338e-10 9.11621e-10
47 Ta 1 6.62 3.31 6.62 -9.99201e-16 2.77556e-16 -1.00614e-15 -8.09968 190113 190113 190113 -0 3.30741e-10 5.97859e-11
48 Ta 1 8.275 4.965 8.275 -3.06699e-15 3.33067e-15 -3.16414e-15 -8.09968 190113 190113 190113 9.78325e-10 -1.06726e-09 1.1562e-09
49 Ta 1 0 6.62 6.62 1.11022e-16 -7.21645e-16 -7.77156e-16 -8.09968 190113 190113 190113 -5.33632e-10 -1.77877e-10 8.89387e-11
50 Ta 1 1.655 8.275 8.275 2.498e-16 -5.81479e-15 -1.9585e-15 -8.09968 190113 190113 190113 3.3352e-10 4.78045e-10 -2.45693e-09
51 Ta 1 3.31 6.62 6.62 3.1225e-16 -1.02349e-15 -9.12465e-16 -8.09968 190113 190113 190113 5.55867e-11 2.22347e-11 4.00224e-10
52 Ta 1 4.965 8.275 8.275 3.2474e-15 -2.9976e-15 -2.69923e-15 -8.09968 190113 190113 190113 8.79002e-10 8.84663e-10 -1.0895e-09
53 Ta 1 6.62 6.62 6.62 -8.88178e-16 -8.88178e-16 -7.68482e-16 -8.09968 190113 190113 190113 1.55643e-10 2.72375e-10 1.88995e-10
54 Ta 1 8.275 8.275 8.275 -3.21965e-15 -3.13638e-15 -2.81199e-15 -8.09968 190113 190113 190113 -1.13397e-09 -1.10062e-09 -1.03947e-09
