ITEM: TIMESTEP
4
ITEM: NUMBER OF ATOMS
54
ITEM: BOX BOUNDS xy xz yz pp pp pp
0.0000000000000000e+00 9.9299999999999997e+00 0.0000000000000000e+00
0.0000000000000000e+00 9.9299999999999997e+00 0.0000000000000000e+00
0.0000000000000000e+00 9.9299999999999997e+00 0.0000000000000000e+00
ITEM: ATOMS id element type x y z fx fy fz c_pe c_stress_tensor[1] c_stress_tensor[2] c_stress_tensor[3] c_stress_tensor[4] c_stress_tensor[5] c_stress_tensor[6]
1 Ta 1 9.92367 0.00544603 0.00699476 0.0445569 -0.0596661 -0.103268 -8.09574 162160 96628.3 90476.1 -14180.8 -59169.5 -53076.9
2 Ta 1 1.64772 1.64753 1.64792 0.122173 0.0972135 0.0716255 -8.0977 208682 215914 236130 12106.3 -15503.4 -47665.7
3 Ta 1 3.31418 0.00153463 0.00647226 -0.0471279 -0.0175579 -0.0618521 -8.09525 175898 220015 182927 4249.82 -6163.57 -26702.9
4 Ta 1 4.96946 1.65258 1.65018 -0.0550472 0.0527541 0.0545488 -8.09246 145349 124054 142265 19945 53358.7 -46025.5
5 Ta 1 6.61635 0.00478897 0.0075597 0.0205557 -0.116901 -0.13344 -8.10261 158070 189576 205101 4147.13 18768.2 -28493.9
6 Ta 1 8.26949 1.65268 1.64766 0.0231308 0.0484348 0.127921 -8.08787 36533.1 109743 62183.9 21684.8 -22479.6 26369.9
7 Ta 1 9.92634 3.30498 0.00568863 0.0798232 0.0483101 -0.0677238 -8.09451 162912 137697 204189 3537.15 -34108.7 9221.4
8 Ta 1 1.65044 4.97174 1.65086 0.0373249 -0.12831 0.058359 -8.09869 175567 219735 172540 -17752.4 42316.1 -7745.41
9 Ta 1 3.31676 3.31704 9.92693 -0.0868573 -0.0886979 0.0327731 -8.10743 283169 224055 239595 -30394.5 -10838.7 -4032.38
10 Ta 1 4.96704 4.96539 1.65023 0.00721583 0.0205997 0.0777884 -8.09526 220528 200469 224491 -7403.18 -38089.9 22435.9
11 Ta 1 6.62645 3.30761 0.00754028 -0.0852216 0.043884 -0.0809764 -8.0982 129190 138531 165626 41426.4 52437.6 33806.9
12 Ta 1 8.28207 4.97197 1.64793 -0.0381586 -0.0483169 0.0907436 -8.10419 180964 189766 178163 -1403.65 -12126.4 -52716.1
13 Ta 1 0.00664987 6.62629 9.92771 -0.069652 -0.00717502 0.0171237 -8.08633 65159.1 112299 51929.4 3268.57 12320.8 25825.7
14 Ta 1 1.64882 8.27827 1.65628 0.0750645 0.00810842 0.000454788 -8.09943 139303 105928 166748 -5183.78 18617.2 -3304.29
15 Ta 1 3.30596 6.61514 0.00777399 0.0540779 0.0614602 -0.0505853 -8.09916 147325 155715 165690 -34472.7 -9596.53 60676
16 Ta 1 4.96198 8.27567 1.65826 0.0211472 -0.0723279 -0.0335255 -8.09705 192810 156171 182544 -4440.87 -14902.6 -14876.7
17 Ta 1 6.62164 6.62019 9.92805 -0.0358412 0.04665 -0.00148436 -8.09811 224625 235248 239327 22888 5262.45 10526.1
18 Ta 1 8.27655 8.27245 1.6585 -0.0350911 -0.0113877 -0.0674864 -8.09773 130408 109951 126942 -16952 3156.17 -18152.2
19 Ta 1 9.92413 0.000694957 3.30301 0.0600479 0.000148906 0.0945037 -8.09629 175966 140947 151350 -19482.3 60057.9 -31928.6
20 Ta 1 1.65606 1.65008 4.96758 -0.00457382 0.0288262 -0.0564819 -8.10007 197960 229343 212478 50572.8 -9550.55 62462.2
21 Ta 1 3.31695 9.92761 3.31192 -0.103637 0.0193995 -0.0341842 -8.10062 205503 180272 152478 7597.46 -9809.68 -56206.3
22 Ta 1 4.96441 1.64887 4.95934 0.0536797 0.0870792 0.0229678 -8.09326 147593 193668 134840 13533.5 -21861.1 72995.6
23 Ta 1 6.62085 9.92388 3.30446 -0.0341461 0.0519152 0.0366054 -8.09774 98781.9 158434 96965.7 47617 -48947.9 -13231.3
24 Ta 1 8.27394 1.65094 4.9608 -0.0025557 0.017565 0.0318753 -8.09858 198383 167845 222237 -39186.2 43451.7 25474.9
25 Ta 1 0.00118069 3.30354 3.3136 -0.00673461 0.0446199 -0.0648921 -8.10757 288308 248586 215584 -6519.34 11918.7 480.11
26 Ta 1 1.65632 4.96359 4.96162 0.0250745 -0.0282243 0.0412647 -8.0998 246837 221451 239664 -39629.6 53767.8 18024.1
27 Ta 1 3.31619 3.3051 3.30846 -0.0639222 0.0390052 -0.0208207 -8.11108 303931 305656 337742 41096.8 47429.5 20521.8
28 Ta 1 4.96713 4.97127 4.97252 -0.0542609 -0.0880558 -0.0671239 -8.10142 184434 192480 205595 -27713.3 -7699.08 -30263.9
29 Ta 1 6.62018 3.31356 3.31298 0.0034892 -0.0243246 -0.0402703 -8.10628 239384 252322 233314 -6436.06 -57425.2 -19681.4
30 Ta 1 8.27047 4.96218 4.96377 0.0723245 0.0600577 0.00425939 -8.09502 179614 212481 236453 29475.9 -48400.6 17637.6
31 Ta 1 0.0045697 6.62087 3.30657 -0.0604733 -0.0237558 0.0783363 -8.09502 131259 182174 176772 11795.9 -24820.8 -15499
32 Ta 1 1.65286 8.27202 4.96721 -0.01749 0.0660459 -0.00297112 -8.10479 229492 211637 224598 -3527.32 31511.9 -19829.3
33 Ta 1 3.3043 6.61939 3.31345 0.0508269 -0.0288119 -0.0488743 -8.09921 171745 202174 169263 -54101.7 -4407.52 -8979.42
34 Ta 1 4.95788 8.26762 4.96402 0.042826 0.0653027 0.00298509 -8.09726 131895 101402 129963 34203.3 -47133.1 25447.3
35 Ta 1 6.62215 6.6195 3.31268 -0.0366481 -0.0250536 -0.0634678 -8.09831 206601 150308 155902 -22695.5 -7178.85 6247.6
36 Ta 1 8.26839 8.27832 4.95788 0.113746 -0.0387141 0.107564 -8.10403 247095 230417 220370 -19390.1 25942.1 15947.3
37 Ta 1 0.00445071 0.00392318 6.6267 -0.0698942 -0.0480126 -0.0719794 -8.09628 223399 234145 243600 -36915.4 18635.5 27155.7
38 Ta 1 1.65772 1.65265 8.26954 -0.0270445 0.0525208 0.0943875 -8.104 208727 256687 187895 -46832.6 12577.5 -34747.6
39 Ta 1 3.31416 0.00771972 6.6173 -0.0408088 -0.111956 0.0143289 -8.09362 116316 107491 150398 19091.5 -23355.2 -8258.98
40 Ta 1 4.96371 1.64883 8.26907 0.0555029 0.0507361 0.0822592 -8.09592 156479 176940 154015 37150.2 -21761 16777.7
41 Ta 1 6.61648 0.00476302 6.61259 0.0440594 -0.0730144 0.0843064 -8.10256 223667 229246 266408 50161.6 48318 -5634.06
42 Ta 1 8.27422 1.65972 8.27846 0.00085952 -0.0575804 -0.0583328 -8.09824 201868 193161 153219 48510.2 -21812.2 -1092.11
43 Ta 1 9.92753 3.31333 6.61463 0.0285395 -0.0288674 0.0575472 -8.10432 238223 204844 236041 3363.91 -1081.29 15733.1
44 Ta 1 1.64755 4.97147 8.27755 0.0696073 -0.117072 -0.0206663 -8.09864 182903 195031 183907 51681.5 -55161 14521.9
45 Ta 1 3.31607 3.30579 6.62597 -0.0666965 0.0696936 -0.079037 -8.10145 241784 186317 218805 -57436.9 -36731.5 40148
46 Ta 1 4.96453 4.96211 8.27175 0.0380198 0.043473 0.0455986 -8.09947 214750 190749 147903 -53121.3 28504.8 -12392.4
47 Ta 1 6.62501 3.31226 6.62611 -0.0415041 -0.0395526 -0.0574324 -8.10192 185400 199796 223168 30389.4 25353.9 41399.3
48 Ta 1 8.27535 4.96715 8.28174 0.000461277 0.0129225 -0.0585147 -8.10407 193349 200786 189748 -24171.9 35677.4 -40045
49 Ta 1 0.00630365 6.61588 6.62412 -0.106483 0.0549374 -0.0873813 -8.10177 229444 218873 206999 7935.35 32359.7 21610.3
50 Ta 1 1.65775 8.27522 8.2783 0.00901515 0.069678 0.00250003 -8.1054 170237 177014 209595 -5480.91 -3984.91 20205.4
51 Ta 1 3.30932 6.62365 6.62547 -0.0398722 -0.0637436 -0.0294897 -8.0912 92010.2 175388 139356 -2956.66 6128.77 -18304.8
52 Ta 1 4.95719 8.2695 8.27227 0.089947 0.0638195 0.0562523 -8.10549 270346 231564 246860 19532.5 -26150.4 -37185.7
53 Ta 1 6.61627 6.62378 6.61325 0.0900272 0.00110852 0.101426 -8.09823 212415 208937 176815 -15554.8 -11930.1 -26102.6
54 Ta 1 8.28185 8.27688 8.27576 -0.103381 0.0208091 -0.0280449 -8.1055 301804 279986 306713 -28545.8 11299.9 27168.5
