ITEM: TIMESTEP
7
ITEM: NUMBER OF ATOMS
54
ITEM: BOX BOUNDS xy xz yz pp pp pp
0.0000000000000000e+00 9.9299999999999997e+00 0.0000000000000000e+00
0.0000000000000000e+00 9.9299999999999997e+00 0.0000000000000000e+00
0.0000000000000000e+00 9.9299999999999997e+00 0.0000000000000000e+00
ITEM: ATOMS id element type x y z fx fy fz c_pe c_stress_tensor[1] c_stress_tensor[2] c_stress_tensor[3] c_stress_tensor[4] c_stress_tensor[5] c_stress_tensor[6]
1 Ta 1 9.91894 0.00949994 0.0121879 0.0762815 -0.105607 -0.181048 -8.09202 138238 24383.4 14081.4 -24917.1 -103309 -93887
2 Ta 1 1.64233 1.64198 1.64264 0.212836 0.169297 0.125606 -8.0952 218033 230024 266416 19515.7 -28173.5 -82823.2
3 Ta 1 3.31729 0.0026766 0.0112947 -0.0820135 -0.03065 -0.108094 -8.09166 163690 241725 177393 7304.79 -11630.1 -46573.9
4 Ta 1 4.97278 1.6508 1.64659 -0.0968954 0.0930493 0.0961239 -8.08655 108450 73490.8 105603 35452.3 93811.2 -81367.7
5 Ta 1 6.61362 0.00832074 0.0131611 0.0363972 -0.203995 -0.232682 -8.10376 130190 185415 211337 7152.43 32797.5 -52502
6 Ta 1 8.26536 1.65096 1.64222 0.0413175 0.0835602 0.224464 -8.07817 -82073.9 46562.8 -34634.3 38642 -39771.2 46197.3
7 Ta 1 9.92363 3.30124 0.00992039 0.138718 0.0851894 -0.117351 -8.09015 140948 96549.6 213934 6847.33 -59439.8 15900.9
8 Ta 1 1.64703 4.97672 1.64779 0.0642904 -0.223328 0.101284 -8.0972 161520 239083 156481 -30763.5 74087.5 -12088.6
9 Ta 1 3.32179 3.32228 9.92464 -0.15096 -0.154807 0.0567482 -8.11254 350638 247853 273121 -54021.5 -18055.1 -6447.58
10 Ta 1 4.96858 4.9657 1.64669 0.0131575 0.0354277 0.135142 -8.09167 241862 207100 248785 -12631.6 -66664.1 38536.9
11 Ta 1 6.63125 3.30584 0.013154 -0.148108 0.0785103 -0.140557 -8.09642 80898.6 96682.8 145599 72836.4 89825.9 59664.7
12 Ta 1 8.28735 4.97717 1.64267 -0.0669479 -0.0836706 0.157328 -8.10706 171770 187067 168060 -2560.86 -21256.5 -91285.9
13 Ta 1 0.0116016 6.63101 9.92601 -0.122186 -0.0120973 0.0302414 -8.07591 -28828.5 52380.6 -52141.9 6134.64 21830 44806.5
14 Ta 1 1.64422 8.28073 1.65724 0.131237 0.013879 0.000655054 -8.09899 101111 41863.4 148691 -8740.03 32652.4 -5864.97
15 Ta 1 3.30297 6.61153 0.0135785 0.0945726 0.108037 -0.0889949 -8.09836 112984 129006 147003 -60124.1 -15988.1 105859
16 Ta 1 4.95972 8.27614 1.66068 0.0367861 -0.126084 -0.0586062 -8.09485 193868 130004 175678 -7465.72 -25897.7 -26156.1
17 Ta 1 6.62286 6.62035 9.92659 -0.0625369 0.0812004 -0.00242411 -8.09676 249315 267958 275228 40278.3 9348.13 17735.8
18 Ta 1 8.2777 8.27054 1.66108 -0.0610083 -0.0198786 -0.117873 -8.096 85231.4 49432.6 79259.7 -29578.6 5550.29 -32213.7
19 Ta 1 9.91977 0.00121626 3.29782 0.10399 0.000662482 0.164614 -8.09323 163151 102441 119764 -33724.2 104797 -55741.9
20 Ta 1 1.65685 1.6464 4.96949 -0.00840619 0.0505873 -0.098556 -8.10011 203225 257672 227864 88143.3 -16954.3 108945
21 Ta 1 3.32211 9.92583 3.31334 -0.180729 0.033401 -0.0597285 -8.10082 215316 170207 122746 13487.3 -17271.8 -97931
22 Ta 1 4.96399 1.64432 4.95511 0.09294 0.151257 0.0393662 -8.0879 113651 193758 91014.1 22859.9 -39681.4 126692
23 Ta 1 6.62147 9.91932 3.30033 -0.0597019 0.0910925 0.0635058 -8.09584 29317.9 133072 26189.9 83070.5 -85484.9 -22074.5
24 Ta 1 8.27314 1.64791 4.95767 -0.00430157 0.0310486 0.0555756 -8.09762 203512 150675 245132 -68546.9 76507.9 44348.1
25 Ta 1 0.00206277 3.29873 3.31627 -0.0112875 0.0779215 -0.112826 -8.11311 359666 291062 234091 -11697 20512.5 828.862
26 Ta 1 1.65733 4.96251 4.95911 0.0427262 -0.0490684 0.0716769 -8.09962 288117 243840 275832 -69260.1 93340.6 32306.9
27 Ta 1 3.32079 3.30144 3.3073 -0.110815 0.0681871 -0.0353099 -8.11895 386039 389293 444841 71647.2 81030.5 35729.9
28 Ta 1 4.9687 4.97593 4.97812 -0.0948163 -0.154036 -0.117304 -8.1022 178638 191654 215352 -49025.5 -14040.3 -52972.2
29 Ta 1 6.62031 3.31621 3.31519 0.00529266 -0.0431447 -0.0699636 -8.11082 274348 296930 264587 -12127.1 -99768.4 -34218.2
30 Ta 1 8.26711 4.9601 4.96285 0.125713 0.104066 0.00774845 -8.09116 170777 227551 269106 50679.4 -84988.2 30654.5
31 Ta 1 0.00796597 6.62152 3.30404 -0.105388 -0.0410153 0.136329 -8.0912 86629.7 175056 164950 20277.7 -42818.1 -27033.9
32 Ta 1 1.65125 8.26982 4.96886 -0.0301603 0.114474 -0.00491704 -8.10837 258084 227102 249300 -5795.38 54630.6 -34222.5
33 Ta 1 3.30006 6.61892 3.31601 0.0884006 -0.0497466 -0.0852052 -8.09854 156497 209836 152923 -94449.6 -7451.78 -15671.5
34 Ta 1 4.95256 8.26212 4.96329 0.0744333 0.113998 0.00539653 -8.09513 87508 34258.5 83919.2 59253.5 -82779.3 45211.1
35 Ta 1 6.62374 6.61911 3.31466 -0.0638946 -0.0436928 -0.110535 -8.09708 218353 119520 129995 -39816.9 -12913.3 10905.8
36 Ta 1 8.2635 8.28079 4.9526 0.196679 -0.0671261 0.186444 -8.10636 286740 255944 238863 -33287 43221.5 28441.7
37 Ta 1 0.00775291 0.00684095 6.63168 -0.121644 -0.0831236 -0.124981 -8.09318 245898 264484 281223 -66103.8 31915.9 46221.2
38 Ta 1 1.65974 1.65092 8.2655 -0.0467341 0.0916677 0.164792 -8.10665 220625 303670 185243 -82304.8 21134.4 -61163
39 Ta 1 3.31726 0.0134521 6.61528 -0.0708708 -0.19603 0.02461 -8.08854 59229.4 45563.5 118634 32256.7 -41169.9 -14894.7
40 Ta 1 4.96278 1.64423 8.26467 0.0968896 0.0876393 0.144024 -8.09263 129868 165592 125775 63922.4 -39368.5 27634.5
41 Ta 1 6.61387 0.00829785 6.60707 0.0768954 -0.126893 0.145626 -8.10404 245829 256669 319498 87700.1 84166.1 -8546.72
42 Ta 1 8.27364 1.66323 8.28103 0.00186452 -0.100331 -0.101759 -8.09689 210046 194611 124298 84328.5 -38385.6 -1881.25
43 Ta 1 9.92569 3.3158 6.61063 0.0497272 -0.0505907 0.100156 -8.10752 273064 215798 269454 5674.72 -2026.53 27593.4
44 Ta 1 1.642 4.97627 8.27945 0.122558 -0.204514 -0.0348595 -8.09719 175709 196685 175954 90932.7 -95911.8 25678.3
45 Ta 1 3.32059 3.30267 6.63041 -0.115722 0.120932 -0.138404 -8.10211 277989 180549 237456 -99582.4 -64357.5 69650.6
46 Ta 1 4.96419 4.95996 8.26933 0.0663634 0.0766992 0.078874 -8.09886 231601 189321 115201 -92582.8 49873.9 -21245.1
47 Ta 1 6.62875 3.31394 6.63066 -0.0717596 -0.0678755 -0.0993168 -8.10321 180125 206218 245978 52646.9 43067.1 71406.2
48 Ta 1 8.27561 4.96878 8.28676 0.00137991 0.0217293 -0.102035 -8.10704 194701 207916 188421 -41037.3 61891.1 -69590.9
49 Ta 1 0.0109768 6.61282 6.62717 -0.184601 0.0955772 -0.151616 -8.10257 256012 237094 216125 15431.7 54199.9 39933.7
50 Ta 1 1.65981 8.27542 8.28078 0.0156018 0.120821 0.00377561 -8.10927 153623 166097 222740 -9732.43 -5470.47 35199
51 Ta 1 3.30879 6.62635 6.62956 -0.0698237 -0.111658 -0.0519659 -8.08452 17949.6 163094 100456 -6147.93 10042.9 -33246.9
52 Ta 1 4.95139 8.26542 8.27024 0.156012 0.111298 0.0984086 -8.10912 325426 260425 287215 31477.2 -46557.5 -65678.8
53 Ta 1 6.61351 6.62661 6.60824 0.156911 0.00255011 0.177028 -8.09662 226668 220726 165515 -27723.2 -21976.2 -45852.3
54 Ta 1 8.28693 8.2783 8.27632 -0.178659 0.0352021 -0.0486308 -8.10928 382579 344390 391384 -48913.3 19618.4 47129.8
