ITEM: TIMESTEP
2
ITEM: NUMBER OF ATOMS
54
ITEM: BOX BOUNDS xy xz yz pp pp pp
0.0000000000000000e+00 9.9299999999999997e+00 0.0000000000000000e+00
0.0000000000000000e+00 9.9299999999999997e+00 0.0000000000000000e+00
0.0000000000000000e+00 9.9299999999999997e+00 0.0000000000000000e+00
ITEM: ATOMS id element type x y z fx fy fz c_pe c_stress_tensor[1] c_stress_tensor[2] c_stress_tensor[3] c_stress_tensor[4] c_stress_tensor[5] c_stress_tensor[6]
1 Ta 1 9.92683 0.00272617 0.00350287 0.0225775 -0.0295609 -0.051491 -8.09786 176726 143835 140685 -7066.16 -29606 -26305.6
2 Ta 1 1.65135 1.65126 1.65146 0.06119 0.0487022 0.0357237 -8.09889 200261 203997 213904 6378.2 -7541.53 -23912.2
3 Ta 1 3.31209 0.000768252 0.00323943 -0.0236181 -0.00877696 -0.0309183 -8.09751 183302 205173 186545 2137.95 -2912.57 -13378.8
4 Ta 1 4.96723 1.65379 1.65259 -0.0273783 0.0261919 0.0271093 -8.09616 168389 157326 166359 9859.55 26562.5 -22828.7
5 Ta 1 6.61817 0.00240072 0.00378697 0.0101945 -0.0584762 -0.0667799 -8.10135 174846 190560 198565 2110.23 9378.18 -13720.2
6 Ta 1 8.27224 1.65384 1.65132 0.0114018 0.0244041 0.0637396 -8.09395 114085 150554 126406 10704 -11142.3 13165.8
7 Ta 1 9.92817 3.30749 0.00284794 0.0400214 0.024002 -0.0340452 -8.09719 176830 164299 197297 1639.11 -17080.6 4642.42
8 Ta 1 1.65272 4.96838 1.65293 0.0188405 -0.0642915 0.0293053 -8.09933 183447 205459 181888 -8940.08 21127.3 -4154.57
9 Ta 1 3.31338 3.31353 9.92846 -0.0435604 -0.0443673 0.0164847 -8.10369 237019 207384 215512 -15017.2 -5590.76 -2124.71
10 Ta 1 4.96602 4.9652 1.65261 0.00349016 0.0103938 0.0390258 -8.09752 205587 195482 207562 -3753.35 -19027.7 11340.6
11 Ta 1 6.62323 3.3088 0.00377447 -0.0427509 0.021589 -0.0406675 -8.09907 160198 164977 178200 20633.2 26561.1 16800.1
12 Ta 1 8.27854 4.96849 1.65146 -0.0190367 -0.0243161 0.0455876 -8.10203 186003 190414 184373 -679.311 -6047.2 -26523.1
13 Ta 1 0.00332864 6.62315 9.92886 -0.0347162 -0.00368852 0.00849744 -8.09309 127776 151558 121204 1547.17 6112.38 12964.9
14 Ta 1 1.6519 8.27663 1.65564 0.0375033 0.00408808 0.000256747 -8.0996 164754 148254 178544 -2658.31 9278.55 -1647.59
15 Ta 1 3.30798 6.61757 0.00388968 0.0270055 0.0305896 -0.0251892 -8.0995 169182 173120 177993 -17257.8 -4957.77 30362.2
16 Ta 1 4.96349 8.27534 1.65663 0.0106042 -0.0361881 -0.016751 -8.09841 191632 173287 186545 -2282.27 -7483.89 -7414.11
17 Ta 1 6.62082 6.62009 9.92902 -0.0179251 0.0233593 -0.000766845 -8.09893 207564 212850 214863 11387.4 2597.62 5374.04
18 Ta 1 8.27578 8.27373 1.65675 -0.0175938 -0.00567482 -0.0337291 -8.09875 160372 150153 158625 -8480.16 1578.76 -8986.29
19 Ta 1 9.92706 0.000347478 3.3065 0.0301974 -9.62068e-06 0.0473277 -8.09809 183469 165869 171239 -9784.2 30057.6 -15972.9
20 Ta 1 1.65553 1.65254 4.96629 -0.00220634 0.0143827 -0.0282484 -8.09992 194164 209912 201558 25332 -4727.45 31262.4
21 Ta 1 3.31348 9.9288 3.31096 -0.0518654 0.00979331 -0.0170867 -8.10024 198125 185710 171597 3763.12 -4891.1 -28156.5
22 Ta 1 4.9647 1.65193 4.96217 0.0269852 0.0437034 0.0116503 -8.09658 169289 192403 162985 6922.31 -10645.4 36663.5
23 Ta 1 6.62043 9.92694 3.30723 -0.0170602 0.0258674 0.0183915 -8.09879 144692 174606 143780 23827 -24473.3 -6821.49
24 Ta 1 8.27447 1.65297 4.9629 -0.00130648 0.00872777 0.0159636 -8.09916 194447 179088 206384 -19569.2 21621.8 12767.3
25 Ta 1 0.000590715 3.30677 3.3118 -0.00346376 0.0223224 -0.0325354 -8.10369 239592 219573 202943 -3206.48 6017.1 250.798
26 Ta 1 1.65566 4.96429 4.96331 0.0127275 -0.0141497 0.0207097 -8.09979 218678 205985 215050 -19812.5 26997.3 8866.12
27 Ta 1 3.3131 3.30755 3.30923 -0.0321282 0.019501 -0.0106051 -8.1055 247563 248379 264525 20594.2 24070.6 10273.8
28 Ta 1 4.96607 4.96814 4.96876 -0.0271102 -0.0439826 -0.0335582 -8.10065 187592 191812 198223 -13731.5 -3716.17 -15093.1
29 Ta 1 6.62009 3.31178 3.31149 0.00190547 -0.0120306 -0.0202062 -8.10305 215095 221565 211899 -3044.52 -28815.7 -9873.72
30 Ta 1 8.27273 4.96359 4.96439 0.0362729 0.0301765 0.00207475 -8.09743 185062 201615 213662 14884 -24130.2 8850.42
31 Ta 1 0.00228808 6.62044 3.30828 -0.03027 -0.0119646 0.0392543 -8.09741 160818 186379 183799 5951.23 -12516.2 -7770.5
32 Ta 1 1.65393 8.27351 4.9661 -0.0088018 0.0331815 -0.00154758 -8.10228 209952 200994 207565 -1846.05 15835.4 -9995.47
33 Ta 1 3.30715 6.6197 3.31173 0.0254796 -0.0145082 -0.0244637 -8.09951 181224 196404 179835 -27079.3 -2250.29 -4483.23
34 Ta 1 4.96144 8.27131 4.96451 0.0215001 0.0326636 0.00145955 -8.09853 161197 145945 160264 17204.9 -23485.7 12569.7
35 Ta 1 6.62108 6.61975 3.31134 -0.0183434 -0.0125263 -0.0317724 -8.09903 198462 170408 173078 -11309 -3525.34 3128.58
36 Ta 1 8.27169 8.27666 4.96144 0.0572429 -0.0194551 0.0540457 -8.10203 219161 211137 206025 -9804.36 13388.6 7866.32
37 Ta 1 0.00222909 0.00196416 6.62335 -0.0350245 -0.0241429 -0.0361332 -8.09809 207198 212619 217292 -18144.7 9447.66 13808.1
38 Ta 1 1.65636 1.65382 8.27227 -0.0136139 0.0262659 0.0471912 -8.10196 199816 223920 189202 -23328.5 6449 -17290.2
39 Ta 1 3.31208 0.00386582 6.61865 -0.0204843 -0.0558724 0.00725149 -8.09676 153599 148863 170666 9758.62 -11614.9 -4040.81
40 Ta 1 4.96435 1.65191 8.27203 0.0277491 0.025575 0.0410631 -8.09789 173590 183828 172323 18769.4 -10614.2 8717.83
41 Ta 1 6.61824 0.00238542 6.61629 0.022034 -0.036636 0.0424666 -8.10125 207439 210017 229002 25079.6 24203.9 -3061.42
42 Ta 1 8.27461 1.65736 8.27674 0.000361884 -0.0288332 -0.0291813 -8.09901 196104 191795 171939 24350.3 -10859.8 -541.953
43 Ta 1 9.92876 3.31166 6.61731 0.014292 -0.0144141 0.0288437 -8.10205 214387 197500 213262 1711.99 -517.329 7850.29
44 Ta 1 1.65127 4.96824 8.27628 0.0346236 -0.0585132 -0.0105702 -8.09929 186867 192970 187654 25706.5 -27665.3 7217.2
45 Ta 1 3.31304 3.30789 6.62299 -0.0334968 0.0349808 -0.0394443 -8.10069 216418 188790 205004 -28867.2 -18323.2 20183.2
46 Ta 1 4.96476 4.96355 8.27337 0.01901 0.021591 0.022949 -8.09966 202741 190810 169241 -26603.8 14229.7 -6275.09
47 Ta 1 6.62251 3.31113 6.62306 -0.0208993 -0.0200004 -0.0289244 -8.10087 188104 195123 207010 15291.6 12912.7 20880.2
48 Ta 1 8.27518 4.96608 8.27837 0.000122715 0.00661171 -0.0292959 -8.10193 191939 195625 190145 -12315.2 17928.2 -20090.6
49 Ta 1 0.00315752 6.61794 6.62207 -0.0534941 0.027554 -0.0438682 -8.10088 210324 205137 199238 3661.12 16628.9 10408.3
50 Ta 1 1.65637 8.27511 8.27665 0.00451748 0.0349879 0.0013464 -8.10261 180514 183794 200123 -2709.63 -2264.43 10129.1
51 Ta 1 3.30966 6.62183 6.62274 -0.0198965 -0.0318069 -0.0146653 -8.0955 141236 183004 164942 -1293.13 3193.9 -8917.17
52 Ta 1 4.96109 8.27225 8.27363 0.0451851 0.0319479 0.0280852 -8.10272 231143 211230 218869 10280.9 -12920.4 -18457
53 Ta 1 6.61813 6.62189 6.61662 0.0450622 0.000418644 0.0507303 -8.09906 201730 199968 183732 -7679.58 -5746.25 -13000.4
54 Ta 1 8.27843 8.27594 8.27538 -0.0520533 0.0106138 -0.0140897 -8.1027 246442 235544 248842 -14469.1 5662.98 13641.6
