LAMMPS data file via write_data, version 29 Aug 2024, timestep = 2, units = metal

32 atoms
1 atom types

5.7485590430894486e-08 7.0399999425144095 xlo xhi
5.7485590430894486e-08 7.0399999425144095 ylo yhi
5.7485590430894486e-08 7.0399999425144095 zlo zhi

Masses

1 58.69

Atoms # atomic

1 1 5.7485590631129084e-08 5.748559063798333e-08 5.748559062977701e-08 0 0 0
2 1 1.7600000287427953 1.7600000287427953 5.748559071515242e-08 0 0 0
3 1 1.7600000287427953 5.748559071652372e-08 1.7600000287427953 0 0 0
4 1 5.748559072062688e-08 1.7600000287427953 1.7600000287427953 0 0 0
5 1 3.52 5.748559063739111e-08 5.74855906298491e-08 0 0 0
6 1 5.279999971257205 1.7600000287427953 5.748559063466545e-08 0 0 0
7 1 5.279999971257205 5.748559063737254e-08 1.7600000287427953 0 0 0
8 1 3.52 1.7600000287427953 1.7600000287427953 0 0 0
9 1 5.7485590630863155e-08 3.52 5.748559062559258e-08 0 0 0
10 1 1.7600000287427953 5.279999971257205 5.748559063449253e-08 0 0 0
11 1 1.7600000287427953 3.52 1.7600000287427953 0 0 0
12 1 5.748559062815901e-08 5.279999971257205 1.7600000287427953 0 0 0
13 1 3.52 3.52 5.748559062035107e-08 0 0 0
14 1 5.279999971257205 5.279999971257205 5.748559062847186e-08 0 0 0
15 1 5.279999971257205 3.52 1.7600000287427953 0 0 0
16 1 3.52 5.279999971257205 1.7600000287427953 0 0 0
17 1 5.748559063358296e-08 5.748559062815706e-08 3.52 0 0 0
18 1 1.7600000287427953 1.7600000287427953 3.52 0 0 0
19 1 1.7600000287427953 5.748559063123637e-08 5.279999971257205 0 0 0
20 1 5.7485590630910086e-08 1.7600000287427953 5.279999971257205 0 0 0
21 1 3.52 5.748559063130065e-08 3.52 0 0 0
22 1 5.279999971257205 1.7600000287427953 3.52 0 0 0
23 1 5.279999971257205 5.748559063526353e-08 5.279999971257205 0 0 0
24 1 3.52 1.7600000287427953 5.279999971257205 0 0 0
25 1 5.7485590622375277e-08 3.52 3.52 0 0 0
26 1 1.7600000287427953 5.279999971257205 3.52 0 0 0
27 1 1.7600000287427953 3.52 5.279999971257205 0 0 0
28 1 5.748559062571296e-08 5.279999971257205 5.279999971257205 0 0 0
29 1 3.52 3.52 3.52 0 0 0
30 1 5.279999971257205 5.279999971257205 3.52 0 0 0
31 1 5.279999971257205 3.52 5.279999971257205 0 0 0
32 1 3.52 5.279999971257205 5.279999971257205 0 0 0

Velocities

1 -2.8541441471454374 2.573106690563934 3.1023451112731766
2 -3.270255782568045 -3.06143641286427 -3.0398420225057405
3 1.7303004155892556 0.8667793288806196 2.8723424743458366
4 1.8537078267365577 -0.858170512176402 -2.053595403344287
5 -1.6855032352309935 2.2902304474660067 3.3502265118415138
6 -2.4960444444163046 -0.8170661267635162 -3.156626100228299
7 -1.6922800977631507 -1.9935379196065326 2.5313346399620005
8 -2.083293643303023 3.139414845256415 -1.7561672934051908
9 2.8571159024078794 3.270289857954659 -1.289968105045318
10 0.7972195880298656 0.3675557088994415 -2.034582416106055
11 2.7227626714313273 -0.8468438285032327 3.3387317357284565
12 2.988368805669457 3.2367607310954942 -3.0373321462039256
13 2.8081813411039844 2.939319605078304 -0.947777495178828
14 -2.790611457689483 1.6211563206034179 0.6057329618776125
15 -1.8536949418560649 -1.9225573696514113 3.438745442234627
16 -1.4112791875893367 0.49453529016325193 1.4704507855473368
17 0.6256045188771752 0.2767290087190671 -0.8004244083532055
18 0.5851790623063332 -0.9113532725332144 1.5762380063775718
19 -2.6516784143586443 0.49997608737148297 -2.9991607202449813
20 0.36744619409476803 -1.9483722658014855 1.176691678327291
21 2.9404339748695962 -0.84454398002036 0.8866751082870927
22 -0.3532643192428275 -2.4768666272317166 -2.416263797337452
23 0.27896065249413715 -2.4719720873852165 -2.3649527553909087
24 -0.5541690127284515 -1.5710885420157998 -1.781584861010601
25 0.4220279754826383 -2.617664246080949 1.6216707641420438
26 0.4828948700581656 -0.4170840791186265 -1.4255992628636458
27 2.605709524576769 -1.940734230192685 -0.6186090949994479
28 0.8381347203053153 2.9346825443119138 3.328362362267555
29 -0.016315622187386275 1.7475638962784636 1.3480032463551233
30 -2.0696827304406935 -1.0337631257130466 -0.48566043283821875
31 1.901485367165262 0.579554930906534 -1.449864996883811
32 -1.0233163746786444 -1.104600667890546 1.010460483372679
