ITEM: TIMESTEP
2
ITEM: NUMBER OF ATOMS
32
ITEM: BOX BOUNDS pp pp pp
5.7485590430894486e-08 7.0399999425144095e+00
5.7485590430894486e-08 7.0399999425144095e+00
5.7485590430894486e-08 7.0399999425144095e+00
ITEM: ATOMS id element x y z fx fy fz
1 Ni 5.74856e-08 5.74856e-08 5.74856e-08 2.22045e-15 2.2482e-15 2.22045e-15
2 Ni 1.76 1.76 5.74856e-08 1.60982e-15 1.65016e-15 2.16486e-15
3 Ni 1.76 5.74856e-08 1.76 1.55431e-15 2.20657e-15 1.67661e-15
4 Ni 5.74856e-08 1.76 1.76 2.16493e-15 1.59595e-15 1.83664e-15
5 Ni 3.52 5.74856e-08 5.74856e-08 6.02296e-15 2.02616e-15 1.90126e-15
6 Ni 5.28 1.76 5.74856e-08 -9.89486e-15 1.88738e-15 1.97412e-15
7 Ni 5.28 5.74856e-08 1.76 -1.00059e-14 2.13024e-15 1.76248e-15
8 Ni 3.52 1.76 1.76 6.12618e-15 2.63548e-15 7.07333e-16
9 Ni 5.74856e-08 3.52 5.74856e-08 1.9984e-15 6.02296e-15 2.06085e-15
10 Ni 1.76 5.28 5.74856e-08 1.83187e-15 -9.86711e-15 2.07473e-15
11 Ni 1.76 3.52 1.76 2.77556e-15 6.15914e-15 3.747e-16
12 Ni 5.74856e-08 5.28 1.76 2.16493e-15 -9.71792e-15 1.84575e-15
13 Ni 3.52 3.52 5.74856e-08 4.10783e-15 3.94823e-15 3.88578e-15
14 Ni 5.28 5.28 5.74856e-08 -8.95117e-15 -8.86791e-15 1.88738e-15
15 Ni 5.28 3.52 1.76 -8.74301e-15 5.12871e-15 1.72085e-15
16 Ni 3.52 5.28 1.76 5.25101e-15 -8.77077e-15 1.7898e-15
17 Ni 5.74856e-08 5.74856e-08 3.52 1.9984e-15 1.98105e-15 6.09235e-15
18 Ni 1.76 1.76 3.52 1.72085e-15 1.80281e-15 6.13398e-15
19 Ni 1.76 5.74856e-08 5.28 1.85962e-15 2.00534e-15 -9.88098e-15
20 Ni 5.74856e-08 1.76 5.28 1.83187e-15 1.7486e-15 -9.76302e-15
21 Ni 3.52 5.74856e-08 3.52 4.996e-15 1.97065e-15 5.05845e-15
22 Ni 5.28 1.76 3.52 -8.64586e-15 1.58207e-15 5.2354e-15
23 Ni 5.28 5.74856e-08 5.28 -9.08995e-15 2.08167e-15 -8.8124e-15
24 Ni 3.52 1.76 5.28 5.08664e-15 1.80325e-15 -8.77077e-15
25 Ni 5.74856e-08 3.52 3.52 1.83187e-15 5.05151e-15 5.06539e-15
26 Ni 1.76 5.28 3.52 1.77636e-15 -8.82627e-15 5.15907e-15
27 Ni 1.76 3.52 5.28 1.9984e-15 5.00815e-15 -8.84015e-15
28 Ni 5.74856e-08 5.28 5.28 2.08167e-15 -9.04832e-15 -8.97893e-15
29 Ni 3.52 3.52 3.52 3.82767e-15 3.78603e-15 4.04711e-15
30 Ni 5.28 5.28 3.52 -7.65707e-15 -7.72993e-15 4.08007e-15
31 Ni 5.28 3.52 5.28 -7.76462e-15 4.03844e-15 -7.7334e-15
32 Ni 3.52 5.28 5.28 4.10089e-15 -7.63278e-15 -7.70564e-15
