ITEM: TIMESTEP
0
ITEM: NUMBER OF ATOMS
32
ITEM: BOX BOUNDS pp pp pp
5.7485590430894486e-08 7.0399999425144095e+00
5.7485590430894486e-08 7.0399999425144095e+00
5.7485590430894486e-08 7.0399999425144095e+00
ITEM: ATOMS id type x y z fx fy fz c_pe
1 1 5.74856e-08 5.74856e-08 5.74856e-08 2.22045e-15 2.2482e-15 2.22045e-15 -4.45
2 1 1.76 1.76 5.74856e-08 1.60982e-15 1.65016e-15 2.16486e-15 -4.45
3 1 1.76 5.74856e-08 1.76 1.55431e-15 2.20657e-15 1.67661e-15 -4.45
4 1 5.74856e-08 1.76 1.76 2.16493e-15 1.59595e-15 1.83664e-15 -4.45
5 1 3.52 5.74856e-08 5.74856e-08 6.02296e-15 2.02616e-15 1.90126e-15 -4.45
6 1 5.28 1.76 5.74856e-08 -9.89486e-15 1.88738e-15 1.97412e-15 -4.45
7 1 5.28 5.74856e-08 1.76 -1.00059e-14 2.13024e-15 1.76248e-15 -4.45
8 1 3.52 1.76 1.76 6.12618e-15 2.63548e-15 7.07333e-16 -4.45
9 1 5.74856e-08 3.52 5.74856e-08 1.9984e-15 6.02296e-15 2.06085e-15 -4.45
10 1 1.76 5.28 5.74856e-08 1.83187e-15 -9.86711e-15 2.07473e-15 -4.45
11 1 1.76 3.52 1.76 2.77556e-15 6.15914e-15 3.747e-16 -4.45
12 1 5.74856e-08 5.28 1.76 2.16493e-15 -9.71792e-15 1.84575e-15 -4.45
13 1 3.52 3.52 5.74856e-08 4.10783e-15 3.94823e-15 3.88578e-15 -4.45
14 1 5.28 5.28 5.74856e-08 -8.95117e-15 -8.86791e-15 1.88738e-15 -4.45
15 1 5.28 3.52 1.76 -8.74301e-15 5.12871e-15 1.72085e-15 -4.45
16 1 3.52 5.28 1.76 5.25101e-15 -8.77077e-15 1.7898e-15 -4.45
17 1 5.74856e-08 5.74856e-08 3.52 1.9984e-15 1.98105e-15 6.09235e-15 -4.45
18 1 1.76 1.76 3.52 1.72085e-15 1.80281e-15 6.13398e-15 -4.45
19 1 1.76 5.74856e-08 5.28 1.85962e-15 2.00534e-15 -9.88098e-15 -4.45
20 1 5.74856e-08 1.76 5.28 1.83187e-15 1.7486e-15 -9.76302e-15 -4.45
21 1 3.52 5.74856e-08 3.52 4.996e-15 1.97065e-15 5.05845e-15 -4.45
22 1 5.28 1.76 3.52 -8.64586e-15 1.58207e-15 5.2354e-15 -4.45
23 1 5.28 5.74856e-08 5.28 -9.08995e-15 2.08167e-15 -8.8124e-15 -4.45
24 1 3.52 1.76 5.28 5.08664e-15 1.80325e-15 -8.77077e-15 -4.45
25 1 5.74856e-08 3.52 3.52 1.83187e-15 5.05151e-15 5.06539e-15 -4.45
26 1 1.76 5.28 3.52 1.77636e-15 -8.82627e-15 5.15907e-15 -4.45
27 1 1.76 3.52 5.28 1.9984e-15 5.00815e-15 -8.84015e-15 -4.45
28 1 5.74856e-08 5.28 5.28 2.08167e-15 -9.04832e-15 -8.97893e-15 -4.45
29 1 3.52 3.52 3.52 3.82767e-15 3.78603e-15 4.04711e-15 -4.45
30 1 5.28 5.28 3.52 -7.65707e-15 -7.72993e-15 4.08007e-15 -4.45
31 1 5.28 3.52 5.28 -7.76462e-15 4.03844e-15 -7.7334e-15 -4.45
32 1 3.52 5.28 5.28 4.10089e-15 -7.63278e-15 -7.70564e-15 -4.45
ITEM: TIMESTEP
1
ITEM: NUMBER OF ATOMS
32
ITEM: BOX BOUNDS pp pp pp
5.7485590430894486e-08 7.0399999425144095e+00
5.7485590430894486e-08 7.0399999425144095e+00
5.7485590430894486e-08 7.0399999425144095e+00
ITEM: ATOMS id type x y z fx fy fz c_pe
1 1 -0.00285409 0.00257316 0.0031024 0.0168432 -0.0296527 -0.0230599 -4.44835
2 1 1.75673 1.75694 -0.00303978 0.0430117 0.0440199 0.0263499 -4.44981
3 1 1.76173 0.000866837 1.76287 -0.00524175 0.000500395 -0.0217612 -4.44911
4 1 0.00185377 1.75914 1.75795 -0.0236814 0.0211292 0.0116107 -4.45056
5 1 3.51831 0.00229029 0.00335028 0.00606571 -0.0222209 -0.0433798 -4.45096
6 1 5.2775 1.75918 -0.00315657 0.0261681 0.0183139 0.0327641 -4.45122
7 1 5.27831 -0.00199348 1.76253 0.00691677 0.0295535 -0.0259181 -4.44911
8 1 3.51792 1.76314 1.75824 0.0120682 -0.0251529 0.0165466 -4.45001
9 1 0.00285717 3.52327 -0.00128991 -0.0373864 -0.0336446 0.0252228 -4.45157
10 1 1.7608 5.28037 -0.00203452 0.00643367 0.0160304 0.0261674 -4.45006
11 1 1.76272 3.51915 1.76334 -0.0298643 0.00425532 -0.0486438 -4.45047
12 1 0.00298843 5.28324 1.75696 -0.0316854 -0.0488788 0.0339186 -4.45149
13 1 3.52281 3.52294 -0.00094772 -0.0361152 -0.0407667 0.00523876 -4.45012
14 1 5.27721 5.28162 0.00060579 0.0241161 -0.0124805 0.00930729 -4.44996
15 1 5.27815 3.51808 1.76344 0.0428147 0.0250094 -0.045873 -4.45148
16 1 3.51859 5.28049 1.76147 0.00471125 -0.0101251 -0.0177342 -4.44816
17 1 0.000625662 0.000276786 3.5192 -0.0150059 -0.0108761 -0.00450884 -4.44935
18 1 1.76059 1.75909 3.52158 0.00148102 0.00527638 -0.0159305 -4.44875
19 1 1.75735 0.000500034 5.277 0.031991 -0.0185967 0.0284216 -4.44978
20 1 0.000367504 1.75805 5.28118 -0.0244939 0.0164104 -0.015112 -4.44869
21 1 3.52294 -0.000844486 3.52089 -0.038572 0.00629939 -0.00795647 -4.44917
22 1 5.27965 1.75752 3.51758 0.0058739 0.0223622 0.0248659 -4.44992
23 1 5.28028 -0.00247191 5.27764 -0.00679121 0.0157926 0.0274019 -4.44986
24 1 3.51945 1.75843 5.27822 0.0157392 0.0105929 0.0172313 -4.45053
25 1 0.000422085 3.51738 3.52162 0.00101161 0.0347018 -0.0155944 -4.45201
26 1 1.76048 5.27958 3.51857 -0.0163098 0.00101491 0.0298648 -4.45005
27 1 1.76261 3.51806 5.27938 -0.0278129 0.017072 0.00456239 -4.44932
28 1 0.000838192 5.28293 5.28333 -0.00572893 -0.0267016 -0.0398735 -4.45053
29 1 3.51998 3.52175 3.52135 0.00679148 -0.0278558 0.0025095 -4.44788
30 1 5.27793 5.27897 3.51951 0.0506046 -0.00344784 0.00294448 -4.44969
31 1 5.2819 3.52058 5.27855 -0.0069583 -0.00803673 0.00875953 -4.45036
32 1 3.51898 5.2789 5.28101 0.00300504 0.0301024 -0.008342 -4.44953
