ITEM: TIMESTEP
0
ITEM: NUMBER OF ATOMS
32
ITEM: BOX BOUNDS pp pp pp
5.7485590430894486e-08 7.0399999425144095e+00
5.7485590430894486e-08 7.0399999425144095e+00
5.7485590430894486e-08 7.0399999425144095e+00
ITEM: ATOMS id type x y z fx fy fz c_pe
1 1 5.74856e-08 5.74856e-08 5.74856e-08 2.22045e-15 2.2482e-15 2.22045e-15 -4.45
2 1 1.76 1.76 5.74856e-08 1.60982e-15 1.65016e-15 2.16486e-15 -4.45
3 1 1.76 5.74856e-08 1.76 1.55431e-15 2.20657e-15 1.67661e-15 -4.45
4 1 5.74856e-08 1.76 1.76 2.16493e-15 1.59595e-15 1.83664e-15 -4.45
5 1 3.52 5.74856e-08 5.74856e-08 6.02296e-15 2.02616e-15 1.90126e-15 -4.45
6 1 5.28 1.76 5.74856e-08 -9.89486e-15 1.88738e-15 1.97412e-15 -4.45
7 1 5.28 5.74856e-08 1.76 -1.00059e-14 2.13024e-15 1.76248e-15 -4.45
8 1 3.52 1.76 1.76 6.12618e-15 2.63548e-15 7.07333e-16 -4.45
9 1 5.74856e-08 3.52 5.74856e-08 1.9984e-15 6.02296e-15 2.06085e-15 -4.45
10 1 1.76 5.28 5.74856e-08 1.83187e-15 -9.86711e-15 2.07473e-15 -4.45
11 1 1.76 3.52 1.76 2.77556e-15 6.15914e-15 3.747e-16 -4.45
12 1 5.74856e-08 5.28 1.76 2.16493e-15 -9.71792e-15 1.84575e-15 -4.45
13 1 3.52 3.52 5.74856e-08 4.10783e-15 3.94823e-15 3.88578e-15 -4.45
14 1 5.28 5.28 5.74856e-08 -8.95117e-15 -8.86791e-15 1.88738e-15 -4.45
15 1 5.28 3.52 1.76 -8.74301e-15 5.12871e-15 1.72085e-15 -4.45
16 1 3.52 5.28 1.76 5.25101e-15 -8.77077e-15 1.7898e-15 -4.45
17 1 5.74856e-08 5.74856e-08 3.52 1.9984e-15 1.98105e-15 6.09235e-15 -4.45
18 1 1.76 1.76 3.52 1.72085e-15 1.80281e-15 6.13398e-15 -4.45
19 1 1.76 5.74856e-08 5.28 1.85962e-15 2.00534e-15 -9.88098e-15 -4.45
20 1 5.74856e-08 1.76 5.28 1.83187e-15 1.7486e-15 -9.76302e-15 -4.45
21 1 3.52 5.74856e-08 3.52 4.996e-15 1.97065e-15 5.05845e-15 -4.45
22 1 5.28 1.76 3.52 -8.64586e-15 1.58207e-15 5.2354e-15 -4.45
23 1 5.28 5.74856e-08 5.28 -9.08995e-15 2.08167e-15 -8.8124e-15 -4.45
24 1 3.52 1.76 5.28 5.08664e-15 1.80325e-15 -8.77077e-15 -4.45
25 1 5.74856e-08 3.52 3.52 1.83187e-15 5.05151e-15 5.06539e-15 -4.45
26 1 1.76 5.28 3.52 1.77636e-15 -8.82627e-15 5.15907e-15 -4.45
27 1 1.76 3.52 5.28 1.9984e-15 5.00815e-15 -8.84015e-15 -4.45
28 1 5.74856e-08 5.28 5.28 2.08167e-15 -9.04832e-15 -8.97893e-15 -4.45
29 1 3.52 3.52 3.52 3.82767e-15 3.78603e-15 4.04711e-15 -4.45
30 1 5.28 5.28 3.52 -7.65707e-15 -7.72993e-15 4.08007e-15 -4.45
31 1 5.28 3.52 5.28 -7.76462e-15 4.03844e-15 -7.7334e-15 -4.45
32 1 3.52 5.28 5.28 4.10089e-15 -7.63278e-15 -7.70564e-15 -4.45
ITEM: TIMESTEP
1
ITEM: NUMBER OF ATOMS
32
ITEM: BOX BOUNDS pp pp pp
5.7485590430894486e-08 7.0399999425144095e+00
5.7485590430894486e-08 7.0399999425144095e+00
5.7485590430894486e-08 7.0399999425144095e+00
ITEM: ATOMS id type x y z fx fy fz c_pe
1 1 -1.64209e-05 1.49133e-05 1.79689e-05 9.88399e-05 -0.000171137 -0.000132327 -4.44999
2 1 1.75998 1.75998 -1.74931e-05 0.000248641 0.000255763 0.000152117 -4.45
3 1 1.76001 5.06184e-06 1.76002 -3.03467e-05 2.34057e-06 -0.000126133 -4.45
4 1 1.07599e-05 1.76 1.75999 -0.000137174 0.000121148 6.56388e-05 -4.45
5 1 3.51999 1.32801e-05 1.94e-05 3.48085e-05 -0.000128216 -0.000251426 -4.45001
6 1 5.27999 1.76 -1.81673e-05 0.000152206 0.000106437 0.000190163 -4.45001
7 1 5.27999 -1.14522e-05 1.76001 3.91471e-05 0.000171975 -0.000149109 -4.45
8 1 3.51999 1.76002 1.75999 6.94227e-05 -0.000144913 9.5989e-05 -4.45
9 1 1.65531e-05 3.52002 -7.39015e-06 -0.000217327 -0.000194018 0.000146511 -4.45001
10 1 1.76 5.28 -1.16892e-05 3.62847e-05 9.2443e-05 0.000151235 -4.45
11 1 1.76002 3.52 1.76002 -0.00017134 2.38138e-05 -0.000281696 -4.45
12 1 1.73108e-05 5.28002 1.75998 -0.000183806 -0.000283759 0.000196735 -4.45001
13 1 3.52002 3.52002 -5.41451e-06 -0.000209989 -0.000236085 2.96603e-05 -4.45
14 1 5.27998 5.28001 3.55469e-06 0.000138789 -7.34311e-05 5.4133e-05 -4.45
15 1 5.27999 3.51999 1.76002 0.000248578 0.00014479 -0.000265468 -4.45001
16 1 3.51999 5.28 1.76001 2.71863e-05 -5.84523e-05 -0.000101981 -4.44999
17 1 3.66941e-06 1.65518e-06 3.52 -8.64329e-05 -6.29653e-05 -2.57172e-05 -4.45
18 1 1.76 1.75999 3.52001 8.64662e-06 3.01239e-05 -9.15918e-05 -4.44999
19 1 1.75998 2.9441e-06 5.27998 0.000184112 -0.000107058 0.000164607 -4.45
20 1 2.17894e-06 1.75999 5.28001 -0.000140771 9.45854e-05 -8.68113e-05 -4.44999
21 1 3.52002 -4.81849e-06 3.52001 -0.000221502 3.68017e-05 -4.6461e-05 -4.45
22 1 5.28 1.75999 3.51999 3.37987e-05 0.00012896 0.000143487 -4.45
23 1 5.28 -1.42145e-05 5.27999 -4.0081e-05 9.10319e-05 0.000158173 -4.45
24 1 3.52 1.75999 5.27999 9.09304e-05 6.16412e-05 9.9518e-05 -4.45
25 1 2.49407e-06 3.51998 3.52001 5.47503e-06 0.000201922 -9.03058e-05 -4.45001
26 1 1.76 5.28 3.51999 -9.40029e-05 5.69647e-06 0.000172256 -4.45
27 1 1.76002 3.51999 5.28 -0.000160855 9.897e-05 2.58009e-05 -4.45
28 1 4.89646e-06 5.28002 5.28002 -3.23671e-05 -0.000154664 -0.000231027 -4.45
29 1 3.52 3.52001 3.52001 3.93328e-05 -0.000160731 1.4297e-05 -4.44999
30 1 5.27999 5.27999 3.52 0.000292926 -2.00276e-05 1.67853e-05 -4.45
31 1 5.28001 3.52 5.27999 -4.01972e-05 -4.66962e-05 5.02003e-05 -4.45
32 1 3.51999 5.27999 5.28001 1.70677e-05 0.000173712 -4.72524e-05 -4.45
