
***************************************************************
*                 Welcome to use GPUMD                        *
*     (Graphics Processing Units Molecular Dynamics)          *
*                     version 4.3                             *
*              This is the gpumd executable                   *
***************************************************************


---------------------------------------------------------------
Compiling options:
---------------------------------------------------------------

DEBUG is off: Use different PRNG seeds for different runs.

---------------------------------------------------------------
GPU information:
---------------------------------------------------------------

number of GPUs = 1
Device id:                   0
    Device name:             NVIDIA GeForce RTX 4060 Laptop GPU
    Compute capability:      8.9
    Amount of global memory: 7.99561 GB
    Number of SMs:           24

---------------------------------------------------------------
Started running GPUMD.
---------------------------------------------------------------


---------------------------------------------------------------
Started initializing positions and related parameters.
---------------------------------------------------------------

Number of atoms is 32.
Use periodic boundary conditions along x.
Use periodic boundary conditions along y.
Use periodic boundary conditions along z.
Box matrix h = [a, b, c] is
    7.0400000000e+00    0.0000000000e+00    0.0000000000e+00
    0.0000000000e+00    7.0400000000e+00    0.0000000000e+00
    0.0000000000e+00    0.0000000000e+00    7.0400000000e+00
Inverse box matrix g = inv(h) is
    1.4204545455e-01    0.0000000000e+00    0.0000000000e+00
    0.0000000000e+00    1.4204545455e-01    0.0000000000e+00
    0.0000000000e+00    0.0000000000e+00    1.4204545455e-01
Do not specify initial velocities here.
Have no grouping method.
There is only one atom type.
    32 atoms of type 0.
Initialized velocities with default T = 300 K.

---------------------------------------------------------------
Finished initializing positions and related parameters.
---------------------------------------------------------------


---------------------------------------------------------------
Started executing the commands in run.in.
CUDA Error:
    File:       force/neighbor.cu
    Line:       348
    Error code: 700
    Error text: an illegal memory access was encountered
---------------------------------------------------------------

Reading ADP potential with 1 elements: Ni 
  nrho = 3001, drho = 0.000971
  nr = 10000, dr = 0.000517
  cutoff = 5.168000
ADP potential initialized with 1 elements and cutoff = 5.168000 Angstrom.
Initialized velocities with input T = 300 K.
Use NVE ensemble for this run.
Time step for this run is 1 fs.
Dump thermo every 1 steps.
Dump force.
    every 1 steps.
Run 2 steps.
