lammpslib autogenerated data file

54 atoms
1 atom types

  0.00000000e+00   9.45012100e+00 xlo xhi
  0.00000000e+00   9.45012100e+00 ylo yhi
  0.00000000e+00   9.45012100e+00 zlo zhi
  0.00000000e+00   0.00000000e+00   0.00000000e+00 xy xz yz


Atoms 

   1    1   9.37313086e+00   2.98019020e-01   3.48378710e-01
   2    1   9.16537940e+00   9.36097801e+00   2.88229636e+00
   3    1   3.61467100e-02   4.72510000e-04   6.40395955e+00
   4    1   9.29810635e+00   3.12641188e+00   9.26812112e+00
   5    1   9.14104534e+00   3.37125507e+00   3.08954696e+00
   6    1   9.08637639e+00   3.21196383e+00   6.05807567e+00
   7    1   1.32490700e-01   6.09847494e+00   9.23183266e+00
   8    1   9.18707688e+00   6.25013993e+00   3.17029824e+00
   9    1   2.41148190e-01   6.24029290e+00   6.28896102e+00
  10    1   2.97919790e+00   9.24593224e+00   1.79164840e-01
  11    1   2.63035613e+00   2.56778690e-01   2.93074713e+00
  12    1   3.17111095e+00   3.53358920e-01   6.15864386e+00
  13    1   3.24811054e+00   3.25028407e+00   1.23777680e-01
  14    1   2.91896282e+00   3.28917131e+00   3.13269621e+00
  15    1   3.11206660e+00   3.07681765e+00   6.18338427e+00
  16    1   3.37699129e+00   6.14696351e+00   9.15233824e+00
  17    1   3.41305295e+00   6.15197207e+00   2.95458978e+00
  18    1   3.25801427e+00   5.98202109e+00   6.32204590e+00
  19    1   6.12544558e+00   3.02006970e-01   9.37526659e+00
  20    1   5.94271804e+00   9.43961247e+00   3.15571671e+00
  21    1   6.68110325e+00   2.31263360e-01   6.17335769e+00
  22    1   6.19679399e+00   3.21398615e+00   2.22607050e-01
  23    1   6.15300213e+00   2.95167914e+00   3.03464176e+00
  24    1   6.34740057e+00   2.83712478e+00   6.23201460e+00
  25    1   6.14610355e+00   6.57328681e+00   9.37476574e+00
  26    1   6.31391879e+00   6.28023856e+00   3.06142340e+00
  27    1   6.29430979e+00   6.28011571e+00   6.16700721e+00
  28    1   1.47793277e+00   1.76336423e+00   1.65742837e+00
  29    1   1.42830074e+00   1.40903194e+00   5.17757954e+00
  30    1   1.70528378e+00   1.50441201e+00   8.14937800e+00
  31    1   1.72389107e+00   4.65271037e+00   1.35651762e+00
  32    1   1.78961666e+00   4.72475810e+00   4.93740472e+00
  33    1   1.78573266e+00   4.74463170e+00   7.81026985e+00
  34    1   1.39054750e+00   7.59148065e+00   1.63493708e+00
  35    1   1.92495185e+00   7.96349412e+00   4.58466950e+00
  36    1   1.80649458e+00   7.72653233e+00   8.20997217e+00
  37    1   4.62828181e+00   1.66386390e+00   1.46543026e+00
  38    1   4.62964263e+00   1.72311616e+00   4.72960601e+00
  39    1   4.57744961e+00   1.70326146e+00   7.86398434e+00
  40    1   4.90826055e+00   4.67392590e+00   1.76062369e+00
  41    1   4.92415565e+00   4.60027165e+00   4.92438245e+00
  42    1   5.09501384e+00   4.67763034e+00   7.89034073e+00
  43    1   4.74539716e+00   7.92374691e+00   1.52977614e+00
  44    1   4.41946249e+00   7.93138260e+00   4.81989246e+00
  45    1   5.07738936e+00   8.07897459e+00   7.87207364e+00
  46    1   7.90383550e+00   1.51121610e+00   1.72441083e+00
  47    1   7.71018362e+00   1.46023270e+00   4.46495537e+00
  48    1   7.91030883e+00   1.41034551e+00   7.96211440e+00
  49    1   8.01578163e+00   4.62273459e+00   1.52666705e+00
  50    1   7.78940399e+00   4.64019841e+00   4.73763861e+00
  51    1   7.91360693e+00   4.68432103e+00   7.93029584e+00
  52    1   7.93713773e+00   8.10302515e+00   1.61393891e+00
  53    1   8.23728302e+00   7.66886769e+00   4.85882696e+00
  54    1   7.90356145e+00   7.99995268e+00   8.00956346e+00
