250
Time=1000.00000000 pbc="T T T" Lattice="0.00000000 16.42598265 16.42598265 16.42598265 0.00000000 16.42598265 16.42598265 16.42598265 0.00000000" energy=356.35195271 virial="2438.90038608 352.56811939 -110.15471620 352.56811939 4013.50952199 435.51949076 -110.15471620 435.51949076 2810.70097980" stress="0.30865060 0.03783169 -0.01204410 0.03783169 0.49089906 0.04748547 -0.01204410 0.04748547 0.36345074" Properties=species:S:1:pos:R:3
Te 3.18051059 2.38459139 5.09889392
Te 4.50216527 7.97732006 6.72118721
Te 15.72128064 24.82969675 11.55228677
Te 3.19787032 13.42697693 10.64706006
Te 16.81131795 2.54313360 16.61559354
Te 4.04323052 6.53164240 3.29544532
Te 5.77076300 8.69809061 11.11776941
Te 7.09932850 13.65208391 12.20524370
Te 6.29989396 17.06590311 18.46539147
Te 24.51794483 30.84515587 23.39392774
Te 7.22228915 2.31519114 8.40918219
Te 10.20824142 8.94712981 11.24044724
Te 9.20067500 11.86701357 18.22366777
Te 9.19653157 12.90237920 21.78667780
Te 13.03079121 16.63475914 24.38824902
Te 14.40972738 6.65279632 13.38659416
Te 11.07395200 7.36362638 16.04852154
Te 14.68335649 8.46236749 19.01011809
Te 13.93549634 13.06235824 25.02593551
Te 11.48333623 16.38647124 26.97882380
Te 20.61814039 22.14345569 29.66934722
Te 16.84884861 8.86490048 18.97050027
Te 18.41854981 10.33396574 20.67584886
Te 14.99065054 12.97795871 27.86600107
Te 13.15628973 2.63529682 13.74834037
Te 9.38931714 18.78212788 16.40471130
Te 9.09759058 11.89007567 8.80817881
Te 5.12681314 12.94780520 8.92475915
Te 6.04124861 15.75710871 12.99247655
Te 8.17021752 15.92987842 13.56719952
Te 8.37403608 6.79713617 5.27680370
Te 9.91291577 8.77892103 8.64952130
Te 11.03275534 12.64083170 13.28168257
Te 10.64964008 13.45556174 15.54787367
Te 14.50353835 18.00474367 19.99236751
Te 14.33480901 21.23109200 25.29383800
Te 10.17738272 10.72532315 16.42996005
Te 13.01901637 14.23116202 13.11358613
Te 14.12742829 13.33232101 16.19091862
Te 14.12874116 18.61075695 25.75881138
Te 16.89691913 5.13604581 12.53455985
Te 16.80635268 10.32021069 16.54425960
Te 16.22525234 12.55579934 20.24337932
Te 17.16958896 14.13743039 23.58165981
Te 14.96195345 19.44518439 28.13382945
Te 6.78799944 7.03508501 1.49791256
Te 20.99963652 12.78394520 19.86366126
Te 21.18715440 13.17087019 22.20151861
Te 19.46904045 16.84589355 26.11351756
Te 20.40213371 19.60563774 28.78696093
Te 8.35509421 9.45587400 2.37551842
Te 24.53484411 13.69340710 20.72421123
Te 8.85532029 13.59396558 9.33944352
Te 12.05416864 17.77046333 12.12379423
Te 11.85259556 22.02341235 15.63169068
Te 15.88266542 10.28227251 8.21997787
Te 12.81875234 12.06168104 11.64625900
Te 16.00919175 15.92341397 10.38891499
Te 14.22040546 21.73168998 13.42387014
Te 12.34337231 7.95624267 4.82050543
Te 17.52468964 10.83263994 10.85778066
Te 16.28636449 14.43502447 13.44370825
Te 17.61029271 16.19721140 17.09112629
Te 14.57956432 24.12045601 16.01463507
Te 17.25629353 22.42716428 21.82713031
Te 18.75171142 11.34255649 13.15252048
Te 20.05685588 11.35067653 16.12094017
Te 18.32658191 16.45246359 20.24210833
Te 19.45570620 17.24024489 24.90474987
Te 20.29893867 21.87161306 24.47155400
Te 21.53277751 9.11393018 14.50568288
Te 20.79966523 16.95738515 19.37163552
Te 22.47867024 17.63852220 21.18477643
Te 10.90318019 21.16783729 10.42391410
Te 24.80875429 24.20635429 32.10520187
Te 12.45968563 14.44126015 4.43655056
Te 12.30239185 16.39426480 5.82716481
Te 12.43467059 19.34143067 8.49040178
Te 11.67390956 22.86814348 12.73271791
Te 28.62257736 28.17768340 32.05519981
Te 14.92109296 12.50280813 5.14752858
Te 15.68577686 18.49351831 7.55182889
Te 15.05563715 19.13708211 13.75309169
Te 17.47348635 19.66877033 10.81841479
Te 15.82704286 25.63348990 19.85545756
Te 17.99680912 12.17075231 10.54402981
Te 20.09284010 15.63575967 12.29974299
Te 20.76396687 24.39791877 17.85369919
Te 19.01072950 23.29024167 18.89994309
Te 17.68441012 26.62256349 21.65876817
Te 21.44915206 12.00156425 11.46695783
Te 21.25216586 15.08328645 16.95842514
Te 24.31702098 21.55193183 22.38362721
Te 23.71256764 18.76551552 25.14296115
Te 22.85818580 25.94403970 26.54757726
Te 23.99488211 12.25728645 15.38682218
Te 24.92739822 15.66199812 19.20955958
Te 24.56218531 19.90587149 21.03175828
Te 26.56087623 22.74257808 25.25442404
Te 26.51067642 25.44387489 27.78936566
Te 15.52557928 15.71305033 1.63390883
Te 3.75019487 3.71037569 7.26121703
Te 1.81789394 7.57851532 8.33890693
Te 17.22370530 29.38766005 13.84874826
Te 18.00537787 30.12872230 15.83287019
Te 19.12218171 16.98509260 6.20208132
Te 18.43045975 17.45445249 10.98087780
Te 21.30544892 23.43421945 14.45142475
Te 18.23531709 23.40727137 15.60063458
Te 20.21893966 28.31489638 21.41324449
Te 21.28521473 15.50780006 10.02031784
Te 22.15378486 19.02916837 12.05027598
Te 24.99956553 23.42850816 15.91283778
Te 23.33543576 28.73563869 19.92764078
Te 21.96821043 30.72902747 22.34021737
Te 25.70393902 19.53678513 14.55700101
Te 25.22973848 19.80873387 16.69032837
Te 25.39951229 22.97546327 20.35572884
Te 25.34318569 27.16668163 22.70244482
Te 27.30471620 28.79601822 26.01734585
Te 27.44048344 12.45657745 17.01997501
Te 11.74512824 3.52930606 15.06006956
Te 30.64402418 23.98373582 22.24526781
Te 28.32566394 26.66879947 26.27607663
Te 29.00889837 29.34386465 30.11670066
Pb 31.03506736 31.84510654 31.92818669
Pb 14.35820051 18.88924070 4.81085048
Pb 17.14132132 6.19534462 20.08840178
Pb 16.53250958 10.37703968 23.66598045
Pb 14.83037836 15.20342230 29.45778874
Pb 18.53650208 15.72684649 5.04618823
Pb 5.51924211 3.27319781 7.50670274
Pb 19.75000688 22.72606237 11.31540021
Pb 3.45643717 9.42301579 11.21179088
Pb 19.62393073 30.14732092 17.71162255
Pb 8.48702219 18.19050545 21.74115714
Pb 8.42546863 5.72798051 12.22131890
Pb 23.39760615 21.77931071 15.80331821
Pb 7.22794839 11.85582271 17.16932996
Pb 24.12130226 27.76255728 24.93620268
Pb 26.53898783 31.66368253 26.19508703
Pb 12.55374044 6.01706487 12.81633871
Pb 27.29775590 22.61233463 18.33588185
Pb 24.90360225 26.14336752 19.09251248
Pb 28.40756502 28.09813674 24.34001401
Pb 26.87575292 14.11094465 13.06927512
Pb 30.64020771 17.67073216 18.13455431
Pb 15.10405923 5.50310934 18.74759637
Pb 14.00040162 11.51309889 22.59628520
Pb 30.36939975 28.40748540 26.56376035
Pb 3.53765893 2.44384777 2.15778832
Pb 2.90645030 7.32558794 4.73955360
Pb 6.84932649 8.15003247 8.17869288
Pb 3.00297288 11.12371365 8.77524531
Pb 3.95190478 17.78335186 14.84077465
Pb 6.54903828 3.36831709 6.57198541
Pb 7.36876264 5.24957364 9.92407955
Pb 3.38333153 10.69481291 11.12335969
Pb 3.93040541 12.16954047 15.45138724
Pb 8.16244981 17.27058838 18.80525756
Pb 12.16416467 18.17897272 22.47614770
Pb 10.23063582 5.90040323 7.76497076
Pb 7.19723899 9.67635621 14.73422034
Pb 7.71447678 14.61143853 16.61792533
Pb 11.13408890 16.55067375 20.24020527
Pb 10.02083076 3.44296442 10.57227901
Pb 13.36214701 9.85966099 16.37585063
Pb 11.35338665 11.71884531 17.02575321
Pb 12.21021308 12.41436018 18.48397295
Pb 14.99829911 14.67955830 20.78237161
Pb 19.21149036 19.56290736 30.06171611
Pb 17.30592849 5.57301122 15.83664174
Pb 17.38199267 10.89952339 18.52663252
Pb 17.39923426 11.66675709 22.57923328
Pb 17.02064457 17.28032003 30.03139618
Pb 7.30476372 19.57269421 16.39960662
Pb 6.15823088 10.40263388 6.48910694
Pb 23.24726441 15.22262710 21.65842720
Pb 5.58471377 15.13416140 12.03541445
Pb 6.51904330 18.76949444 13.37894444
Pb 13.61072608 19.70374941 16.76780163
Pb 12.35145401 10.77701013 3.88285857
Pb 6.77468709 12.88751497 9.64557694
Pb 10.14620442 17.36556169 11.55210697
Pb 10.10248106 18.97499882 14.29236554
Pb 9.14290109 10.45277057 7.41456841
Pb 13.50393417 9.89774247 10.65768962
Pb 15.66227459 10.68170650 12.73994259
Pb 12.81819418 17.55632721 16.16027874
Pb 12.93678436 22.33159667 21.37424489
Pb 17.53266456 8.53243052 11.00976597
Pb 15.92789688 8.55298677 12.86502394
Pb 16.58676455 13.16209403 16.80890503
Pb 12.44930502 14.94009811 18.48253577
Pb 17.40746807 17.12934955 26.01672724
Pb 20.98366820 24.26937659 28.71377272
Pb 20.34651969 6.90442744 14.05115856
Pb 20.20244999 15.70770528 18.60742336
Pb 19.91959002 16.75964547 22.20524030
Pb 19.06955366 19.69250949 26.56121635
Pb 26.82448795 23.42806890 29.40525888
Pb 25.73799986 14.88849120 16.62137710
Pb 10.48526428 16.65987379 6.92221412
Pb 25.61439145 20.02840169 24.66637870
Pb 24.25328150 21.07174541 28.62172468
Pb 24.93992064 9.17723143 15.95637304
Pb 11.43458362 13.09606844 7.34353825
Pb 11.95894214 16.58267930 9.52319194
Pb 14.43833823 18.65980880 11.81284492
Pb 12.19742622 24.76565069 17.98335532
Pb 17.62969037 24.40666010 23.12208652
Pb 15.86687840 13.53982075 8.86052984
Pb 17.98715834 15.29841935 10.51634975
Pb 17.78928734 18.61149542 16.54443941
Pb 16.90435225 20.76302977 16.99709186
Pb 21.36204557 27.38380480 25.33338117
Pb 19.56497968 13.53171415 16.03986915
Pb 21.25158891 17.68620397 15.78465368
Pb 15.47759570 18.44069243 23.11842400
Pb 21.05471409 23.01692606 24.38774398
Pb 22.96299275 9.40505541 13.99538623
Pb 22.54269803 11.18671572 18.57623467
Pb 24.21383593 18.30619873 19.47257829
Pb 19.60902028 21.23548137 21.99576683
Pb 23.86596696 22.69433808 26.53428405
Pb 13.52406021 28.84550533 16.23822728
Pb 27.27081459 17.08592684 19.07671844
Pb 16.29662760 21.71881273 8.15810493
Pb 28.93363057 23.93989927 23.99132415
Pb 16.34680691 23.39114727 14.40772780
Pb 16.35695691 28.64244367 19.29073449
Pb 16.95297120 16.12811096 6.70577166
Pb 15.31290247 22.12010230 9.60830200
Pb 13.29498064 25.21920865 13.61766594
Pb 17.64706754 26.58756394 17.91104037
Pb 17.65474585 12.84658232 7.22650397
Pb 20.77826083 15.66696671 8.61718532
Pb 18.86929736 17.78311224 13.33114429
Pb 19.44304838 21.82167266 14.56659275
Pb 19.87734612 27.64070694 17.79375632
Pb 23.75527452 29.91506327 26.24906483
Pb 23.40907025 16.37180614 14.43473004
Pb 20.64120590 20.39986210 16.99294832
Pb 19.91631267 25.97440870 21.14040511
Pb 22.42045030 28.57383993 22.33906536
Pb 26.96519236 29.12883385 29.43694231
Pb 26.82995238 17.00280344 16.38225434
Pb 28.16236283 20.20121710 22.78313690
Pb 26.35565577 21.54015470 23.77366201
Pb 23.76153653 24.92820202 24.05035028
250
Time=2000.00000000 pbc="T T T" Lattice="0.00000000 16.42598265 16.42598265 16.42598265 0.00000000 16.42598265 16.42598265 16.42598265 0.00000000" energy=3438.18443373 virial="6643.24486161 1757.20615604 1786.31133217 1757.20615604 7078.92357908 3676.68946392 1786.31133217 3676.68946392 9139.69728241" stress="2.38047963 0.16319970 0.33416380 0.16319970 2.66425401 0.55271247 0.33416380 0.55271247 2.96625445" Properties=species:S:1:pos:R:3
Te 11.81821732 8.58661910 11.16164169
Te 16.10440039 11.47882192 8.70050860
Te 7.45620210 7.45347544 1.38465077
Te 14.44249346 20.64930625 12.99355854
Te 12.16917436 4.44814649 8.37034071
Te 21.42109054 30.29119827 20.48380352
Te 30.45756792 31.08901781 31.71332657
Te 5.07285394 5.86743543 7.39367146
Te 21.28847594 19.74278393 18.27565315
Te 17.57392603 8.64844525 18.27555010
Te 15.22823659 13.63550226 16.49122242
Te 17.15122395 15.23704277 10.70069891
Te 25.52934595 12.08672712 16.02298763
Te 14.46863451 20.30413679 16.79181731
Te 18.42790616 22.79515995 19.33425488
Te 13.35183363 19.11342196 11.32616022
Te 13.20041175 20.72332009 21.89142370
Te 18.33414447 11.01149847 18.99253276
Te 17.09424841 17.55438236 26.73170897
Te 19.10382875 21.03024725 17.88962126
Te 15.82450111 5.89324670 13.48861963
Te 31.01077982 17.77624268 17.90013136
Te 31.31280490 26.79569842 27.28628080
Te 23.95291654 22.65561597 19.75549207
Te 30.45220631 20.39706719 18.99599967
Te 20.84832238 18.84771462 30.38924650
Te 15.10561363 20.22458658 23.38512877
Te 11.76728509 10.01715122 11.74173564
Te 21.73570835 15.84319940 22.03283332
Te 20.88512237 22.75708941 13.46620275
Te 25.89028058 23.92579121 21.95262126
Te 2.13641971 15.35570152 17.39445051
Te 14.95021896 29.19977659 16.06786839
Te 9.24628834 4.36664333 6.78158841
Te 10.89071886 20.60793950 16.07002917
Te 18.90141554 19.92011628 6.55012090
Te 6.64871193 5.37716908 11.21105464
Te 26.02728090 20.45967449 14.82186024
Te 12.36806709 8.63458758 18.20348859
Te 20.57953047 12.29806495 9.09600397
Te 9.71512164 9.94451623 16.22508673
Te 5.12625112 3.90947738 4.24433423
Te 13.02264347 15.10309773 16.72429307
Te 16.70148814 22.71352924 9.89403918
Te 2.32751595 7.82798097 7.59358663
Te 27.90930896 23.48849960 24.02435071
Te 8.10914067 8.05231614 10.85611665
Te 18.43595969 15.76759197 4.97574878
Te 12.74407789 19.06233248 12.90977360
Te 12.05151260 18.52195108 9.35220177
Te 9.32699179 16.58340132 18.41411682
Te 7.18783566 15.26910116 15.50543846
Te 13.01584923 3.73921024 13.82543578
Te 8.50137141 12.58289456 8.45004097
Te 7.91166006 11.82360979 14.75632810
Te 9.75570676 11.58498639 3.29269454
Te 13.13834183 8.00941682 17.71102622
Te 24.49573584 13.08578539 18.22583099
Te 11.12088191 13.56839760 14.30392908
Te 27.40570640 24.98990948 27.78093746
Te 11.21607468 11.49806296 17.17363817
Te 4.17714903 13.32535127 16.99678874
Te 23.21467901 17.62685032 24.34775039
Te 18.34329623 23.09243655 24.65076510
Te 12.74268123 15.16140730 6.79958354
Te 22.30305669 14.32377666 24.58094393
Te 16.81048975 20.20029068 9.30785101
Te 17.56259843 15.03167429 21.33831963
Te 28.65089901 29.91398103 29.09708897
Te 11.35440727 19.79789275 20.13470305
Te 15.52877880 8.73888261 22.00641366
Te 18.33118520 17.58870527 25.39472684
Te 18.14762055 28.79736260 18.78059980
Te 18.98889014 24.68574403 11.81508584
Te 6.77989623 16.89507566 18.04258932
Te 12.35715270 16.15814624 27.07627830
Te 21.60231235 17.01829725 26.61474270
Te 26.28483378 23.80842864 17.36565927
Te 6.38679007 10.96962675 16.25960820
Te 14.41324928 9.00454356 9.88813630
Te 13.54477932 8.10471017 6.89308959
Te 27.05078660 18.13611606 20.62537159
Te 14.16447924 25.51160591 17.31234123
Te 9.31335143 10.52368049 19.26901879
Te 22.96311718 17.60592183 8.31152675
Te 12.50531143 10.95269924 9.36050911
Te 23.96485091 29.41607533 24.31709627
Te 8.37960664 14.78256848 19.05064632
Te 21.95542448 20.20554282 26.69026016
Te 21.31794147 21.52355696 31.00052439
Te 7.96057557 17.79085271 14.68987800
Te 17.90391816 25.40548746 16.16002749
Te 18.33095886 15.21094970 7.63280854
Te 14.84336234 11.25597246 20.30592620
Te 15.19785726 26.58877859 17.80992145
Te 9.39194411 23.63088187 16.18318766
Te 10.29492983 25.50417708 15.81021915
Te 21.57831246 20.21051036 21.68131618
Te 10.96753285 12.14943799 18.86367339
Te 18.70179738 17.57140950 26.82052490
Te 23.22337330 14.59441962 10.29954574
Te 18.22190687 16.83919657 11.05810302
Te 27.78040622 14.59462407 16.94468131
Te 26.81924310 18.95454812 13.03893513
Te 21.52387870 25.99924389 17.93908477
Te 13.00033553 11.85655631 3.07902562
Te 19.78907569 11.08889158 12.91101575
Te 20.88969182 15.65082729 17.00547595
Te 15.41728615 3.06021511 13.07452288
Te 21.50650047 20.29854272 19.01146299
Te 24.73003514 17.95226958 23.50358415
Te 11.73515305 15.35983999 24.64582980
Te 15.83356997 2.12493283 15.07419001
Te 21.96914281 22.72859781 27.40253468
Te 25.39895843 18.83930971 19.20766944
Te 12.72239236 19.15164329 14.96686631
Te 11.47498411 10.02890209 21.32216864
Te 22.17952206 26.29084406 21.89752428
Te 15.10064488 8.64074105 16.44771622
Te 4.23924260 15.69568606 17.81099194
Te 18.07099039 26.74496203 15.04197753
Te 5.04024183 6.32915369 3.65395396
Te 23.29309960 23.49687061 20.73878194
Te 4.30982052 8.29106613 5.34464194
Te 7.84244925 12.77460316 10.83334424
Pb 20.41305750 14.14059271 14.51206267
Pb 13.29938978 4.10680452 17.30247888
Pb 16.80371287 19.28132471 14.89171445
Pb 28.42160106 16.17883868 14.29390880
Pb 12.60274080 6.69720049 18.89206480
Pb 13.82378750 7.66928796 9.47379163
Pb 8.36473461 13.50067738 11.10283902
Pb 20.58471853 16.69868368 7.40420882
Pb 20.20547443 14.54448978 6.06306377
Pb 15.77666955 14.22450534 13.25732133
Pb 20.86929490 14.23547615 8.84301514
Pb 25.76714963 27.87888036 25.73018432
Pb 16.44721945 6.14090574 14.22419042
Pb 17.25293184 15.58780348 22.44023502
Pb 27.96830953 25.55172859 24.99199496
Pb 12.32228793 11.77681105 22.44250992
Pb 11.61855670 16.96567039 14.56766886
Pb 17.28380100 23.95407361 22.18543034
Pb 29.37286959 16.70619961 18.89125695
Pb 13.91358213 13.38098143 27.10225395
Pb 20.99535210 20.47207746 10.33361165
Pb 11.38621794 15.68256167 4.67077048
Pb 24.05942358 19.87657771 26.84796709
Pb 5.60787753 10.06224321 5.23984489
Pb 10.19339385 13.26959227 10.79690506
Pb 12.78589846 18.65659376 19.92062345
Pb 11.20248126 9.15129978 6.13288032
Pb 20.81292693 17.80935481 15.67177621
Pb 25.62535405 20.07280357 23.85695936
Pb 15.01377283 22.96074429 11.55560020
Pb 23.82571955 11.20797868 16.97642548
Pb 22.72656694 28.94647015 21.00997715
Pb 21.93318102 13.40087166 18.42247337
Pb 5.80758362 19.67552202 17.72884249
Pb 3.54275133 1.65699819 2.24720420
Pb 10.77221074 8.78189304 3.63155564
Pb 18.55281967 11.76874790 23.02344389
Pb 14.43010453 16.46309943 12.78413828
Pb 24.77201258 16.33682480 17.41873121
Pb 7.45526671 8.56508579 7.36627036
Pb 15.16202927 12.15539692 13.07703015
Pb 27.34148766 19.50669609 19.73290727
Pb 19.37114845 7.12738849 16.65421298
Pb 10.55116676 4.86464332 12.30944732
Pb 22.50955187 25.70707745 24.06494053
Pb 20.96627268 20.58913998 14.66739676
Pb 9.19247592 18.35828771 21.46321917
Pb 28.81940533 21.17877082 18.12519025
Pb 21.88133176 24.12235214 25.23870665
Pb 20.90180101 25.30976651 17.51890930
Pb 9.69647018 16.98313958 25.54316121
Pb 20.94387475 19.29939745 31.12156172
Pb 17.38291791 2.87269524 17.51338535
Pb 13.82659819 7.14351662 20.26595450
Pb 10.09155901 22.04315964 18.13047576
Pb 17.22367457 4.72331261 19.27800090
Pb 9.14315158 8.78860088 14.47703777
Pb 15.63363440 7.62008067 13.22687141
Pb 6.84493357 7.53831196 14.14012834
Pb 15.66259875 15.62898613 11.57850176
Pb 8.01924928 6.71668479 4.85736547
Pb 19.76226503 16.14145458 21.81691054
Pb 17.21590262 12.71583641 14.09204015
Pb 17.05625027 16.93882473 31.05541058
Pb 18.05410487 10.86888168 11.88403947
Pb 13.24130632 25.52544733 14.99041727
Pb 10.11861468 12.84624685 20.24773064
Pb 9.69928619 12.48129345 13.39910169
Pb 30.12620356 28.21125219 29.21565366
Pb 23.81665850 24.62048831 26.68429182
Pb 14.45109456 16.39270947 25.56631785
Pb 22.25658445 13.12311962 22.66535144
Pb 17.12319835 19.20855587 18.16722898
Pb 13.29457450 19.91850982 9.13946539
Pb 19.48172267 8.97076482 12.67463371
Pb 16.82741556 20.73127623 25.75935923
Pb 15.54324839 26.74748661 19.04555292
Pb 18.76790379 5.27117839 19.17020699
Pb 12.62337367 10.24452595 15.53953378
Pb 17.20727972 29.69698500 17.14791490
Pb 14.83211125 17.06171848 15.64100102
Pb 14.47678592 13.21747784 19.99826299
Pb 30.99886526 24.29412952 25.18717103
Pb 9.85175106 4.77008325 5.77331183
Pb 9.16895114 14.94553373 7.27610014
Pb 17.56139908 26.18546714 22.92482550
Pb 14.40714391 6.53940712 12.57379940
Pb 9.91822493 16.15242114 12.08892146
Pb 10.56973084 14.31527753 17.76249670
Pb 1.28887064 12.09119225 12.89743682
Pb 16.00686008 18.26819901 6.90055692
Pb 5.63255401 9.04069593 11.59413179
Pb 15.45977036 21.60059853 23.51282839
Pb 21.26033515 16.73365238 12.79143264
Pb 16.42677735 23.43307325 15.48825670
Pb 6.52009568 12.89414094 14.95262749
Pb 6.72737246 11.52716226 7.40237478
Pb 13.90154611 13.21375187 7.53126288
Pb 6.20980894 2.28859990 7.74899018
Pb 24.20095210 19.84174079 23.67270563
Pb 13.90433256 14.83115814 4.73393332
Pb 4.91860227 15.25254412 13.88342390
Pb 26.86041712 21.93476437 27.75840974
Pb 20.99463152 9.43750389 19.70854453
Pb 25.52246856 21.86831938 15.74861549
Pb 17.76159982 21.75985573 28.48084521
Pb 26.02168984 26.62170466 21.87887344
Pb 5.67120923 8.44455351 9.98659812
Pb 18.11503082 19.39082753 20.77384789
Pb 16.01562857 8.84057642 19.42297800
Pb 24.12830313 17.51592064 24.77088233
Pb 18.47908258 11.53348456 24.98660781
Pb 24.15735010 17.28007528 11.10778694
Pb 16.74904007 13.59191976 5.52978110
Pb 14.19550878 16.48227198 29.67645092
Pb 5.52940038 15.09967419 17.18838086
Pb 8.09965817 4.22126567 10.50256701
Pb 11.77003487 17.85537531 24.07363424
Pb 27.44432704 23.75143862 26.37190919
Pb 11.18816166 5.87808635 13.90664845
Pb 8.15894007 17.16886765 13.47726517
Pb 19.91040617 10.82658127 20.42271293
Pb 17.65171496 15.37078640 18.47531863
Pb 16.38278997 21.41506575 7.09816251
Pb 8.38107367 16.25469600 23.29514064
250
Time=3000.00000000 pbc="T T T" Lattice="0.00000000 16.42598265 16.42598265 16.42598265 0.00000000 16.42598265 16.42598265 16.42598265 0.00000000" energy=22705.83426379 virial="21714.04272536 1074.92671938 -4242.68886759 1074.92671938 45152.66564413 -633.97760791 -4242.68886759 -633.97760791 25186.60350191" stress="2600240.31379908 -1353090.59235473 -1307308.40568700 -1353090.59235473 4849249.29479487 2185315.47082522 -1307308.40568700 2185315.47082522 3508210.27897647" Properties=species:S:1:pos:R:3
Te 21.97580371 22.06858168 28.13469228
Te 13.97562554 5.76150659 13.82621077
Te -78.48596017 -70.11301113 19.61809160
Te 11.78334983 10.75323472 20.19259411
Te 3.98959488 13.85476896 12.24690012
Te 19.89275144 -122.11370222 -111.21668073
Te 16.55092677 28.62972069 14.31290548
Te 27.06203864 31.72345502 27.91050151
Te 18.92178910 17.28930346 14.13180081
Te 13.39801181 19.23625361 13.05044545
Te 8989.97469500 -4721.35077908 13723.10446775
Te -15116.74339358 6961.72491694 22082.20272134
Te 14.86429014 21.77085287 10.84677530
Te 4964.51420381 6202.42794308 -1208.56598277
Te 3360.37765777 -3126.15560880 6499.39215591
Te 1853.26934314 -194.10286613 2049.45958671
Te 29980.18027878 74168.74505754 -44175.58266467
Te 1258.05710146 1253.36801994 -300.34539499
Te -2.01439986 11.76176318 -1.10487955
Te 23.61096347 12.44236762 11.97870609
Te 13391.39443622 37434.23609875 -30708.64552287
Te 9.79090956 16.20849520 20.08891765
Te -2672.62435189 22.67428660 -2668.26517223
Te -46174.35143254 -64870.90203491 -35128.16525065
Te 399.81177192 -541.31708845 -167.38394501
Te 18.06609215 19.47932025 28.29587750
Te 8654.88281127 18602.35508935 9962.49563272
Te 55465.19497562 8931.01727320 37944.04409860
Te 10.47624865 5069.72111866 5078.16332619
Te 17510.68022578 -7437.91884006 -4666.85434630
Te -7090.78700848 23671.34231929 -30730.32490208
Te 6668.48652261 -4517.46523787 -3204.86832909
Te -12127.96858695 8851.91888639 -3293.89882263
Te 10268.58928433 2899.73801196 -5966.79557783
Te 14.26826846 4333.77590588 4325.93264392
Te 17.86813477 6.84780149 17.22945253
Te 16.25954762 183.32125370 193.25426905
Te 4.29149853 3196.31137277 3192.28909686
Te -1349.95965533 17.48467179 -1356.52828690
Te 3408.67008915 5346.11486552 -34233.01644591
Te 17.08289211 6.66694017 15.99198248
Te -26329.45469176 8145.40305243 -531.64584437
Te 41313.65639283 76781.43202448 40013.54184257
Te -74158.18125257 153305.86406453 29786.81613913
Te 61720.58011326 13994.31552637 14714.66879377
Te -893.29889993 -673.52167252 -218.84971878
Te 24.08899423 16.91615698 21.75662879
Te -144643.98876998 73893.20391804 -58212.06468335
Te -3057.93666900 -3317.28925329 -6376.98201772
Te 13.12962061 16.27015044 15.74529408
Te -133.60466401 -134.11897601 12.93593400
Te 25.03360273 -3482.56603929 -3485.38661834
Te 12944.00869918 -18738.53564886 31683.91582176
Te -20902.62019529 10816.29442083 -25045.04341882
Te 18324.49841476 -17460.20202203 10547.54988543
Te -5367.40953202 7673.06914505 2289.07354231
Te -577.73305544 93.82799702 693.73770754
Te 3463.78190751 4020.36392822 -525.98130514
Te 19.77342673 15.30728770 7.78292126
Te 18799.53840935 100161.36695559 71694.23499365
Te 2867.14009077 1604.15869616 -4639.16458807
Te 71762.80316519 -150823.50056983 -27265.64210659
Te 19.12610672 -1519.03758939 -1520.17032728
Te 6.36087912 22.04098798 15.83625994
Te 12.42623195 2.14617591 13.38123185
Te 1943.85616296 939.73315279 -19059.37800005
Te 17089.43769742 -2028.61769153 20940.79769823
Te -48556.52498373 -17794.05002723 -30737.99152803
Te -2135.89471023 9679.29040384 6297.26714141
Te 11.55729711 1005.79741361 995.96645245
Te 161.16286361 -39.52990672 109.87194949
Te -36210.12504628 31410.21591232 -25309.72767252
Te -3490.29078716 1803.75723997 -5288.65772505
Te -5421.66885921 9.05780220 -5418.82607295
Te 25.70427446 24.04307639 22.80993118
Te 3783.15363830 27.61641077 3781.15905950
Te 11.83681220 14.63149631 21.31214578
Te -21927.42557110 98.08506686 -10201.76193351
Te -69.71523293 28.43868295 -71.20569693
Te 25.44968818 14.83744884 16.02647787
Te 7474.71721936 11144.65010640 3691.72171468
Te 6013.55143591 -3727.07228334 2253.74124705
Te 18151.24667470 2586.52589850 15721.99487074
Te 243.26429491 -275.91994651 -59.84373276
Te -32786.44375534 -42898.11604455 -13271.43973236
Te 21.85755160 27.31323644 23.81694256
Te -29323.98078133 -117331.09420502 45355.96573060
Te 24.99408822 13.81630621 16.99107103
Te 13.85500222 15.96270765 11.13421717
Te 38005.17214907 33698.26794464 -9761.34279900
Te 15.35440911 -3866.90886786 -3879.57391563
Te 4080.24546908 -1192.77025888 2846.68529347
Te 22.58054269 16.10780692 12.88878493
Te 22.64349883 32.20839912 22.72464015
Te 10.56751340 14.11487537 10.38025416
Te 13.22447438 20.64325881 22.63059556
Te 6.01533440 12.46163942 13.64839637
Te 6.74401140 17.21067221 18.86401248
Te 13.02489960 -757.70002721 -754.45267999
Te 1113.54348438 1128.28440790 17.94512892
Te 19.90557077 1545.07484497 1540.14428879
Te 1371.12432321 -260.63267367 1078.73980213
Te 18.76646386 20.71265793 11.96760013
Te 27.90678995 19.73390114 18.92135279
Te 21.83508513 10.84279764 19.45893591
Te -438.46240165 18.89777755 -451.91365002
Te 21478.41292351 -4312.74545982 3367.29304898
Te -5883.11895215 -5893.35115235 19.72404386
Te 4164.82484119 4164.42677047 17.59091889
Te 39173.15852996 41272.01366398 57471.54660936
Te -726.95358028 6394.20227682 -10958.03692053
Te 20.22849352 25.71377643 24.18591106
Te 4930.01381555 -4430.75959683 483.82221007
Te -154.02740791 2382.89189422 1109.70371062
Te 3150.25825821 7.07852719 3155.97056692
Te 90.67450310 94.31134526 6.33571219
Te -1894.57078313 -2505.56337987 8565.76051244
Te 2387.21592363 7847.11473478 10216.42062573
Te 26.20317187 -8853.92380662 -8848.88825895
Te 2441.58582956 5461.34160212 3022.32220433
Te -649.03271752 3808.23325108 -3337.33489775
Te -4145.25864836 2930.73857727 -7050.10394484
Te 18.20286888 19.91226883 30.66094142
Te -1938.73274728 -1943.71155420 18.87269540
Te 30.95743363 -8718.85665873 -8706.70415752
Pb 9266.69957266 9269.65033931 7.16475275
Pb 2074.62428001 16791.00965291 -1258.54723564
Pb 1503.42880182 -274.71952555 1781.39155186
Pb -59411.69478552 -126124.13793320 2885.53929387
Pb -5597.84682669 -2775.65307085 2826.55664590
Pb -372.85639959 -6275.05135422 5913.28531874
Pb 22.89732094 22.15226349 29.11965905
Pb 16606.57896043 -9800.26977428 26417.25890769
Pb -47353.99362744 39423.69337198 -9974.33725701
Pb 4125.48839915 4811.46130135 8933.11937467
Pb 13013.44679717 5188.39626815 -124276.17889650
Pb -1295.02118090 -95.89475470 1229.50001707
Pb -1326.07790047 5674.16433904 -6983.23173214
Pb 20.53411248 16.72199697 10.62400553
Pb 23.56953839 15.17208088 9.35277307
Pb 1755.68617206 -1527.90488310 207.56208002
Pb 536.18104200 1457.76878959 8219.32120943
Pb 15.04312264 15.78034816 15.93627207
Pb 5360.62629427 17.45071822 5346.55260226
Pb 8853.22074861 -13821.75770315 -9175.69296660
Pb -2555.33945904 2251.17216567 -4804.17647102
Pb 23.27221613 10.74190637 20.31660847
Pb -2887.01693739 25994.04167869 5301.95855500
Pb 22.92414712 22.42036904 14.97998805
Pb 7.36769530 14.12288518 12.14013308
Pb -25331.42853472 -12997.82868053 124521.08979600
Pb 2049.28835682 -1392.18733153 639.70770804
Pb 32.53853593 -4101.23165767 -4113.04082345
Pb -5935.72754890 -1936.65404646 4006.39936959
Pb -1586.61549502 -1963.98709352 -357.31406253
Pb -23233.52710351 -56202.23504940 34363.57511820
Pb 17.22506050 -46026.68827753 -46036.72174368
Pb -6143.06822622 -353.58764013 -2934.09835022
Pb 23955.50586167 7999.92048876 15972.97473914
Pb 23.58332930 12.24878251 13.59254186
Pb -5425.45199181 -9082.21705649 3666.82926936
Pb 9.11334669 -2386.19306108 -2388.86898114
Pb -2835.48493132 26.92903248 -2836.05997487
Pb 472.42567108 -57950.68205309 -41121.54965781
Pb 26.52901596 26.33891932 31.76335159
Pb -1631.52953855 5459.87834218 -5323.82837443
Pb 452.39877268 30.11328169 455.03471582
Pb -6195.57831829 -21108.33320268 14886.55751589
Pb 387.31419030 331.84417714 -34.17478820
Pb -19340.53048806 -7784.01055737 11563.26495701
Pb 23.99869915 -39.35453330 -45.98359539
Pb 5.10854851 17.54311475 13.19479183
Pb 18.36565647 26.81473696 21.96566019
Pb 167485.85704522 -278223.58203368 -269986.47739497
Pb 2.64568569 10.48219530 11.90234529
Pb -3853.05336888 5054.38996158 1193.08807611
Pb 21.61481795 291.85439699 293.88074094
Pb 22.07344938 14.88112593 7.85792418
Pb 2196.49492792 -1082.92982420 1106.85160820
Pb 5.00869037 -175.00112336 -179.65634287
Pb -812.25238762 16.49251404 -820.46324142
Pb 11655.03898712 9915.75601221 -3453.47505357
Pb 66108.70200690 98412.77196962 -28934.16637877
Pb -34507.37093846 -19540.70426276 -11610.63951891
Pb 16.28325442 15.18471164 19.50271171
Pb -113.56239490 -116.17606776 17.31838163
Pb 7.95952201 13.27037443 5.58255792
Pb 25.50478105 14.37947237 11.92535425
Pb 3812.43981159 5945.09347686 -2104.08418480
Pb 11.61687905 23.43436087 17.54976354
Pb 2777.03199232 -3678.91348933 -4120.92999233
Pb 54842.25225102 -43226.43722693 11583.79683663
Pb -24664.14678137 -29685.36686023 5046.13999816
Pb 11.76666766 18.66295381 17.17051093
Pb -10182.54281512 10017.00598653 -1340.51860774
Pb 18306.07882824 -4585.54591999 -3710.25832687
Pb 16.32695006 9.95459788 19.14813976
Pb 5973.27598494 -12949.71187036 -6988.18944079
Pb 9.80089431 11.07920852 9.15412491
Pb 4381.22152321 61465.28958653 -26467.41031428
Pb -8379.29501242 -8371.76674619 20.92019883
Pb 4.72005656 10.38373881 12.89672116
Pb 14.24488126 -1320.77517941 -1323.58788818
Pb 27.71217106 24.27708279 21.57140067
Pb 7.95844255 7.23869201 7.13717147
Pb -15209.84672987 -15034.91545258 -26292.84700131
Pb 23.34753877 28.78645135 22.53096900
Pb 10680.35126201 -3448.34788466 9381.80246586
Pb -8329.26424331 -8338.05743091 13.00968840
Pb -489.38331411 -957.40512461 471.04583805
Pb 6704.10410866 -8804.56308083 -43958.86359056
Pb -1430.67381571 4725.05222951 3292.93670291
Pb 8.69227418 15.10508064 21.54864261