ITEM: TIMESTEP
0
ITEM: NUMBER OF ATOMS
8
ITEM: BOX BOUNDS xy xz yz pp pp pp
-2.0000000000000000e-16 4.0130140000000001e+00 -2.0000000000000000e-16
0.0000000000000000e+00 4.0130140000000001e+00 0.0000000000000000e+00
0.0000000000000000e+00 8.4163399999999999e+00 0.0000000000000000e+00
ITEM: ATOMS id element type x y z fx fy fz c_pe c_stress_tensor[1] c_stress_tensor[2] c_stress_tensor[3] c_stress_tensor[4] c_stress_tensor[5] c_stress_tensor[6]
1 Ta 1 -1e-16 2.00651 2.10408 1.66533e-16 -9.71445e-17 -6.10623e-15 -7.70256 -626237 -626237 399312 -5.0028e-10 1.33408e-10 -1.59797e-10
2 Ta 1 2.00651 0 2.10408 -1.11022e-16 5.20417e-17 -6.01255e-15 -7.70256 -626237 -626237 399312 -0 -0 -0
3 Ta 1 2.00651 2.00651 2e-16 0 3.81639e-17 1.5335e-14 -7.7751 1.13508e+06 1.13508e+06 -3.99611e+06 -3.11285e-10 -5.55867e-11 -1.07644e-11
4 Ta 1 2.00651 0 6.31226 1.11022e-16 6.93889e-18 -2.10143e-14 -7.70256 -626237 -626237 399312 2.44581e-10 9.42024e-11 2.19397e-11
5 Ta 1 -1e-16 2.00651 6.31226 1.38778e-16 -3.46945e-16 -1.92069e-14 -7.70256 -626237 -626237 399312 -8.89387e-11 -0 -2.74961e-11
6 Ta 1 0 0 4.20817 2.22045e-16 -5.89806e-17 2.32323e-14 -7.7751 1.13508e+06 1.13508e+06 -3.99611e+06 2.22347e-11 2.49513e-11 4.44693e-11
7 Cu 2 0 0 0 0 0 5.10009e-15 -3.56857 2.20859e+06 2.20859e+06 2.54329e+06 -3.82158e-11 -1.45915e-11 -5.55867e-11
8 Cu 2 2.00651 2.00651 4.20817 -1.66533e-16 1.38778e-16 8.63451e-15 -3.56857 2.20859e+06 2.20859e+06 2.54329e+06 -4.66976e-11 -5.88526e-11 5.82723e-11
